<?xml version="1.0" encoding="ISO-8859-1"?>
<modeling>
 <generator>
  <i name="program" type="string">vasp </i>
  <i name="version" type="string">5.4.4.18Apr17-6-g9f103f2a35  </i>
  <i name="subversion" type="string">(build Mar 12 2022 03:37:54) complex            parallel </i>
  <i name="platform" type="string">IFC19.0.3.199_CrayMPICH7.7.19 </i>
  <i name="date" type="string">2022 04 12 </i>
  <i name="time" type="string">14:49:51 </i>
 </generator>
 <incar>
  <i type="string" name="SYSTEM"> bonjour</i>
  <i type="int" name="ISTART">     0</i>
  <i type="string" name="PREC">accurate</i>
  <i type="string" name="ALGO"> Fast</i>
  <i type="logical" name="LSORBIT"> F  </i>
  <i type="int" name="ISPIN">     1</i>
  <i type="int" name="ICHARG">     2</i>
  <i type="int" name="NELM">   100</i>
  <i type="int" name="IBRION">    -1</i>
  <i name="EDIFF">      0.00001000</i>
  <i name="EDIFFG">     -0.03000000</i>
  <i type="int" name="NSW">     0</i>
  <i type="int" name="ISIF">     3</i>
  <i type="int" name="ISYM">     2</i>
  <i name="ENCUT">    600.00000000</i>
  <i type="string" name="LREAL"> Auto</i>
  <i type="int" name="ISMEAR">     0</i>
  <i name="SIGMA">      0.05000000</i>
  <i type="int" name="LMAXMIX">     4</i>
  <i type="logical" name="LWAVE"> F  </i>
  <i type="int" name="LORBIT">    11</i>
  <i type="logical" name="LASPH"> T  </i>
  <v type="int" name="KPOINT_BSE">    -1     0     0     0</v>
  <i type="int" name="NELM">   100</i>
  <i type="string" name="GGA"> PE</i>
  <i type="logical" name="LDAU"> F  </i>
  <i type="logical" name="LASPH"> T  </i>
 </incar>
 <structure name="primitive_cell" >
  <crystal>
   <varray name="basis" >
    <v>       1.50938000      -2.61432300       0.00000000 </v>
    <v>       1.50938000       2.61432300       0.00000000 </v>
    <v>       0.00000000       0.00000000      14.08948700 </v>
   </varray>
   <i name="volume">    111.19442442 </i>
   <varray name="rec_basis" >
    <v>       0.33126184      -0.19125410       0.00000000 </v>
    <v>       0.33126184       0.19125410       0.00000000 </v>
    <v>       0.00000000       0.00000000       0.07097490 </v>
   </varray>
  </crystal>
  <varray name="positions" >
   <v>       0.00000000       0.00000000      -0.25000000 </v>
   <v>       0.33333300      -0.33333300      -0.25000000 </v>
   <v>      -0.33333300       0.33333300      -0.13476000 </v>
   <v>      -0.33333300       0.33333300      -0.36524000 </v>
   <v>       0.33333300      -0.33333300      -0.02272500 </v>
   <v>       0.33333300      -0.33333300      -0.47727500 </v>
   <v>      -0.33333300       0.33333300       0.02272500 </v>
   <v>      -0.33333300       0.33333300       0.47727500 </v>
   <v>       0.33333300      -0.33333300       0.13476000 </v>
   <v>       0.33333300      -0.33333300       0.36524000 </v>
   <v>       0.00000000       0.00000000       0.25000000 </v>
   <v>      -0.33333300       0.33333300       0.25000000 </v>
  </varray>
 </structure>
 <varray name="primitive_index" >
  <v type="int" >        1 </v>
  <v type="int" >        4 </v>
  <v type="int" >        9 </v>
  <v type="int" >       12 </v>
  <v type="int" >        6 </v>
  <v type="int" >        7 </v>
  <v type="int" >        5 </v>
  <v type="int" >        8 </v>
  <v type="int" >       10 </v>
  <v type="int" >       11 </v>
  <v type="int" >        2 </v>
  <v type="int" >        3 </v>
 </varray>
 <kpoints>
  <generation param="Gamma">
   <v type="int" name="divisions">       7        7        2 </v>
   <v name="usershift">      0.00000000       0.00000000       0.00000000 </v>
   <v name="genvec1">      0.14285714       0.00000000       0.00000000 </v>
   <v name="genvec2">      0.00000000       0.14285714       0.00000000 </v>
   <v name="genvec3">      0.00000000       0.00000000       0.50000000 </v>
   <v name="shift">      0.00000000       0.00000000       0.00000000 </v>
  </generation>
  <varray name="kpointlist" >
   <v>       0.00000000       0.00000000       0.00000000 </v>
   <v>       0.14285714      -0.00000000       0.00000000 </v>
   <v>       0.28571429       0.00000000       0.00000000 </v>
   <v>       0.42857143       0.00000000       0.00000000 </v>
   <v>       0.14285714       0.14285714       0.00000000 </v>
   <v>       0.28571429       0.14285714       0.00000000 </v>
   <v>       0.42857143       0.14285714       0.00000000 </v>
   <v>       0.28571429       0.28571429       0.00000000 </v>
   <v>       0.00000000       0.00000000       0.50000000 </v>
   <v>       0.14285714      -0.00000000       0.50000000 </v>
   <v>       0.28571429       0.00000000       0.50000000 </v>
   <v>       0.42857143       0.00000000       0.50000000 </v>
   <v>       0.14285714       0.14285714       0.50000000 </v>
   <v>       0.28571429       0.14285714       0.50000000 </v>
   <v>       0.42857143       0.14285714       0.50000000 </v>
   <v>       0.28571429       0.28571429       0.50000000 </v>
  </varray>
  <varray name="weights" >
   <v>       0.01020408 </v>
   <v>       0.06122449 </v>
   <v>       0.06122449 </v>
   <v>       0.06122449 </v>
   <v>       0.06122449 </v>
   <v>       0.12244898 </v>
   <v>       0.06122449 </v>
   <v>       0.06122449 </v>
   <v>       0.01020408 </v>
   <v>       0.06122449 </v>
   <v>       0.06122449 </v>
   <v>       0.06122449 </v>
   <v>       0.06122449 </v>
   <v>       0.12244898 </v>
   <v>       0.06122449 </v>
   <v>       0.06122449 </v>
  </varray>
 </kpoints>
 <parameters>
  <separator name="general" >
   <i type="string" name="SYSTEM">bonjour</i>
   <i type="logical" name="LCOMPAT"> F  </i>
  </separator>
  <separator name="electronic" >
   <i type="string" name="PREC">accura</i>
   <i name="ENMAX">    600.00000000</i>
   <i name="ENAUG">    535.51400000</i>
   <i name="EDIFF">      0.00001000</i>
   <i type="int" name="IALGO">    68</i>
   <i type="int" name="IWAVPR">    10</i>
   <i type="int" name="NBANDS">    43</i>
   <i name="NELECT">     72.00000000</i>
   <i type="int" name="TURBO">     0</i>
   <i type="int" name="IRESTART">     0</i>
   <i type="int" name="NREBOOT">     0</i>
   <i type="int" name="NMIN">     0</i>
   <i name="EREF">      0.00000000</i>
   <separator name="electronic smearing" >
    <i type="int" name="ISMEAR">     0</i>
    <i name="SIGMA">      0.05000000</i>
    <i name="KSPACING">      0.50000000</i>
    <i type="logical" name="KGAMMA"> T  </i>
   </separator>
   <separator name="electronic projectors" >
    <i type="logical" name="LREAL"> T  </i>
    <v name="ROPT">     -0.00025000     -0.00025000</v>
    <i type="int" name="LMAXPAW">  -100</i>
    <i type="int" name="LMAXMIX">     4</i>
    <i type="logical" name="NLSPLINE"> F  </i>
   </separator>
   <separator name="electronic startup" >
    <i type="int" name="ISTART">     0</i>
    <i type="int" name="ICHARG">     2</i>
    <i type="int" name="INIWAV">     1</i>
   </separator>
   <separator name="electronic spin" >
    <i type="int" name="ISPIN">     1</i>
    <i type="logical" name="LNONCOLLINEAR"> F  </i>
    <v name="MAGMOM">      1.00000000      1.00000000      1.00000000      1.00000000      1.00000000      1.00000000      1.00000000      1.00000000      1.00000000      1.00000000      1.00000000      1.00000000</v>
    <i name="NUPDOWN">     -1.00000000</i>
    <i type="logical" name="LSORBIT"> F  </i>
    <v name="SAXIS">      0.00000000      0.00000000      1.00000000</v>
    <i type="logical" name="LSPIRAL"> F  </i>
    <v name="QSPIRAL">      0.00000000      0.00000000      0.00000000</v>
    <i type="logical" name="LZEROZ"> F  </i>
   </separator>
   <separator name="electronic exchange-correlation" >
    <i type="logical" name="LASPH"> T  </i>
    <i type="logical" name="LMETAGGA"> F  </i>
   </separator>
   <separator name="electronic convergence" >
    <i type="int" name="NELM">   100</i>
    <i type="int" name="NELMDL">    -5</i>
    <i type="int" name="NELMIN">     2</i>
    <i name="ENINI">    600.00000000</i>
    <separator name="electronic convergence detail" >
     <i type="logical" name="LDIAG"> T  </i>
     <i type="logical" name="LSUBROT"> F  </i>
     <i name="WEIMIN">      0.00000000</i>
     <i name="EBREAK">      0.00000006</i>
     <i name="DEPER">      0.30000000</i>
     <i type="int" name="NRMM">     4</i>
     <i name="TIME">      0.40000000</i>
    </separator>
   </separator>
   <separator name="electronic mixer" >
    <i name="AMIX">      0.40000000</i>
    <i name="BMIX">      1.00000000</i>
    <i name="AMIN">      0.10000000</i>
    <i name="AMIX_MAG">      1.60000000</i>
    <i name="BMIX_MAG">      1.00000000</i>
    <separator name="electronic mixer details" >
     <i type="int" name="IMIX">     4</i>
     <i type="logical" name="MIXFIRST"> F  </i>
     <i type="int" name="MAXMIX">   -45</i>
     <i name="WC">    100.00000000</i>
     <i type="int" name="INIMIX">     1</i>
     <i type="int" name="MIXPRE">     1</i>
     <i type="int" name="MREMOVE">     5</i>
    </separator>
   </separator>
   <separator name="electronic dipolcorrection" >
    <i type="logical" name="LDIPOL"> F  </i>
    <i type="logical" name="LMONO"> F  </i>
    <i type="int" name="IDIPOL">     0</i>
    <i name="EPSILON">      1.00000000</i>
    <v name="DIPOL">   -100.00000000   -100.00000000   -100.00000000</v>
    <i name="EFIELD">      0.00000000</i>
   </separator>
  </separator>
  <separator name="grids" >
   <i type="int" name="NGX">    24</i>
   <i type="int" name="NGY">    24</i>
   <i type="int" name="NGZ">   120</i>
   <i type="int" name="NGXF">    48</i>
   <i type="int" name="NGYF">    48</i>
   <i type="int" name="NGZF">   240</i>
   <i type="logical" name="ADDGRID"> F  </i>
  </separator>
  <separator name="ionic" >
   <i type="int" name="NSW">     0</i>
   <i type="int" name="IBRION">    -1</i>
   <i type="int" name="MDALGO">     0</i>
   <i type="int" name="ISIF">     3</i>
   <i name="PSTRESS">      0.00000000</i>
   <i name="EDIFFG">     -0.03000000</i>
   <i type="int" name="NFREE">     0</i>
   <i name="POTIM">      0.50000000</i>
   <i name="SMASS">     -3.00000000</i>
   <i name="SCALEE">      1.00000000</i>
  </separator>
  <separator name="ionic md" >
   <i name="TEBEG">      0.00010000</i>
   <i name="TEEND">      0.00010000</i>
   <i type="int" name="NBLOCK">     1</i>
   <i type="int" name="KBLOCK">     1</i>
   <i type="int" name="NPACO">   256</i>
   <i name="APACO">     16.00000000</i>
  </separator>
  <separator name="symmetry" >
   <i type="int" name="ISYM">     2</i>
   <i name="SYMPREC">      0.00001000</i>
  </separator>
  <separator name="dos" >
   <i type="int" name="LORBIT">    11</i>
   <v name="RWIGS">     -1.00000000     -1.00000000</v>
   <i type="int" name="NEDOS">   301</i>
   <i name="EMIN">     10.00000000</i>
   <i name="EMAX">    -10.00000000</i>
   <i name="EFERMI">      0.00000000</i>
  </separator>
  <separator name="writing" >
   <i type="int" name="NWRITE">     2</i>
   <i type="logical" name="LWAVE"> F  </i>
   <i type="logical" name="LDOWNSAMPLE"> F  </i>
   <i type="logical" name="LCHARG"> T  </i>
   <i type="logical" name="LPARD"> F  </i>
   <i type="logical" name="LVTOT"> F  </i>
   <i type="logical" name="LVHAR"> F  </i>
   <i type="logical" name="LELF"> F  </i>
   <i type="logical" name="LOPTICS"> F  </i>
   <v name="STM">      0.00000000      0.00000000      0.00000000      0.00000000      0.00000000      0.00000000      0.00000000</v>
  </separator>
  <separator name="performance" >
   <i type="int" name="NPAR">     1</i>
   <i type="int" name="NSIM">     4</i>
   <i type="int" name="NBLK">    -1</i>
   <i type="logical" name="LPLANE"> T  </i>
   <i type="logical" name="LSCALAPACK"> T  </i>
   <i type="logical" name="LSCAAWARE"> F  </i>
   <i type="logical" name="LSCALU"> F  </i>
   <i type="logical" name="LASYNC"> F  </i>
   <i type="logical" name="LORBITALREAL"> F  </i>
  </separator>
  <separator name="miscellaneous" >
   <i type="int" name="IDIOT">     3</i>
   <i type="int" name="ISPECIAL">     0</i>
   <i type="logical" name="LMUSIC"> F  </i>
   <v name="POMASS">     10.81100000    183.85000000</v>
   <v name="DARWINR">      0.00000000      0.00000000</v>
   <v name="DARWINV">      1.00000000      1.00000000</v>
   <i type="logical" name="LCORR"> T  </i>
  </separator>
  <i type="logical" name="GGA_COMPAT"> T  </i>
  <i type="logical" name="LBERRY"> F  </i>
  <i type="int" name="ICORELEVEL">     0</i>
  <i type="logical" name="LDAU"> F  </i>
  <i type="int" name="I_CONSTRAINED_M">     0</i>
  <separator name="electronic exchange-correlation" >
   <i type="string" name="GGA">PE</i>
   <i type="int" name="VOSKOWN">     0</i>
   <i type="logical" name="LHFCALC"> F  </i>
   <i type="string" name="PRECFOCK"></i>
   <i type="logical" name="LSYMGRAD"> F  </i>
   <i type="logical" name="LHFONE"> F  </i>
   <i type="logical" name="LRHFCALC"> F  </i>
   <i type="logical" name="LTHOMAS"> F  </i>
   <i type="logical" name="LMODELHF"> F  </i>
   <i name="ENCUT4O">     -1.00000000</i>
   <i type="int" name="EXXOEP">     0</i>
   <i type="int" name="FOURORBIT">     0</i>
   <i name="AEXX">      0.00000000</i>
   <i name="HFALPHA">      0.00000000</i>
   <i name="MCALPHA">      0.00000000</i>
   <i name="ALDAX">      1.00000000</i>
   <i name="AGGAX">      1.00000000</i>
   <i name="ALDAC">      1.00000000</i>
   <i name="AGGAC">      1.00000000</i>
   <i type="int" name="NKREDX">     1</i>
   <i type="int" name="NKREDY">     1</i>
   <i type="int" name="NKREDZ">     1</i>
   <i type="logical" name="SHIFTRED"> F  </i>
   <i type="logical" name="ODDONLY"> F  </i>
   <i type="logical" name="EVENONLY"> F  </i>
   <i type="int" name="LMAXFOCK">     0</i>
   <i type="int" name="NMAXFOCKAE">     0</i>
   <i type="logical" name="LFOCKAEDFT"> F  </i>
   <i name="HFSCREEN">      0.00000000</i>
   <i name="HFSCREENC">      0.00000000</i>
   <i type="int" name="NBANDSGWLOW">     0</i>
  </separator>
  <separator name="vdW DFT" >
   <i type="logical" name="LUSE_VDW"> F  </i>
   <i name="Zab_VDW">     -0.84910000</i>
   <i name="PARAM1">      0.12340000</i>
   <i name="PARAM2">      1.00000000</i>
   <i name="PARAM3">      0.00000000</i>
  </separator>
  <separator name="model GW" >
   <i type="int" name="MODEL_GW">     0</i>
   <i name="MODEL_EPS0">      5.55972122</i>
   <i name="MODEL_ALPHA">      1.00000000</i>
  </separator>
  <separator name="linear response parameters" >
   <i type="logical" name="LEPSILON"> F  </i>
   <i type="logical" name="LRPA"> F  </i>
   <i type="logical" name="LNABLA"> F  </i>
   <i type="logical" name="LVEL"> F  </i>
   <i type="int" name="KINTER">     0</i>
   <i name="CSHIFT">      0.10000000</i>
   <i name="OMEGAMAX">     -1.00000000</i>
   <i name="DEG_THRESHOLD">      0.00200000</i>
   <i name="RTIME">     -0.10000000</i>
   <i name="WPLASMAI">      0.00000000</i>
   <v name="DFIELD">      0.00000000      0.00000000      0.00000000</v>
   <v name="WPLASMA">      0.00000000      0.00000000      0.00000000      0.00000000      0.00000000      0.00000000      0.00000000      0.00000000      0.00000000</v>
  </separator>
  <separator name="orbital magnetization" >
   <i type="logical" name="NUCIND"> F  </i>
   <v name="MAGPOS">      0.00000000      0.00000000      0.00000000</v>
   <i type="logical" name="LNICSALL"> T  </i>
   <i type="logical" name="ORBITALMAG"> F  </i>
   <i type="logical" name="LMAGBLOCH"> F  </i>
   <i type="logical" name="LCHIMAG"> F  </i>
   <i type="logical" name="LGAUGE"> T  </i>
   <i type="int" name="MAGATOM">     0</i>
   <v name="MAGDIPOL">      0.00000000      0.00000000      0.00000000</v>
   <v name="AVECCONST">      0.00000000      0.00000000      0.00000000</v>
  </separator>
  <separator name="response functions" >
   <i type="logical" name="LADDER"> F  </i>
   <i type="logical" name="LRPAFORCE"> F  </i>
   <i type="logical" name="LFXC"> F  </i>
   <i type="logical" name="LHARTREE"> T  </i>
   <i type="int" name="IBSE">     0</i>
   <v type="int" name="KPOINT">    -1     0     0     0</v>
   <i type="logical" name="LTCTE"> F  </i>
   <i type="logical" name="LTETE"> F  </i>
   <i type="logical" name="LTRIPLET"> F  </i>
   <i type="logical" name="LFXCEPS"> F  </i>
   <i type="logical" name="LFXHEG"> F  </i>
   <i type="int" name="NATURALO">     2</i>
   <i type="logical" name="L2ORDER"> F  </i>
   <i type="logical" name="LMP2LT"> F  </i>
   <i type="logical" name="LUSEW"> F  </i>
   <i name="ENCUTGW">     -2.00000000</i>
   <i name="ENCUTGWSOFT">     -2.00000000</i>
   <i name="ENCUTLF">     -1.00000000</i>
   <i type="int" name="LMAXMP2">    -1</i>
   <i name="SCISSOR">      0.00000000</i>
   <i type="int" name="NOMEGA">     0</i>
   <i type="int" name="NOMEGAR">     0</i>
   <i type="int" name="NBANDSGW">    -1</i>
   <i type="int" name="NBANDSO">    -1</i>
   <i type="int" name="NBANDSV">    -1</i>
   <i type="int" name="NELM">   100</i>
   <i type="int" name="NELMHF">     1</i>
   <i type="int" name="DIM">     3</i>
   <i type="int" name="ANTIRES">     0</i>
   <i name="OMEGAMAX">    -30.00000000</i>
   <i name="OMEGAMIN">    -30.00000000</i>
   <i name="OMEGATL">   -200.00000000</i>
   <i type="int" name="OMEGAGRID">   140</i>
   <i name="CSHIFT">     -0.10000000</i>
   <i type="logical" name="SELFENERGY"> F  </i>
   <i type="logical" name="LSPECTRAL"> F  </i>
   <i type="logical" name="LSPECTRALGW"> F  </i>
   <i type="logical" name="LSINGLES"> F  </i>
   <i type="logical" name="LFERMIGW"> F  </i>
   <i type="logical" name="ODDONLYGW"> F  </i>
   <i type="logical" name="EVENONLYGW"> F  </i>
   <i type="int" name="NKREDLFX">     1</i>
   <i type="int" name="NKREDLFY">     1</i>
   <i type="int" name="NKREDLFZ">     1</i>
   <i type="int" name="MAXMEM">  2800</i>
   <i type="int" name="TELESCOPE">     0</i>
   <i type="int" name="TAUPAR">     1</i>
   <i type="int" name="OMEGAPAR">    -1</i>
   <i name="LAMBDA">      1.00000000</i>
  </separator>
  <separator name="External order field" >
   <i name="OFIELD_KAPPA">      0.00000000</i>
   <v name="OFIELD_K">      0.00000000      0.00000000      0.00000000</v>
   <i name="OFIELD_Q6_NEAR">      0.00000000</i>
   <i name="OFIELD_Q6_FAR">      0.00000000</i>
   <i name="OFIELD_A">      0.00000000</i>
  </separator>
 </parameters>
 <atominfo>
  <atoms>      12 </atoms>
  <types>       2 </types>
  <array name="atoms" >
   <dimension dim="1">ion</dimension>
   <field type="string">element</field>
   <field type="int">atomtype</field>
   <set>
    <rc><c>B </c><c>   1</c></rc>
    <rc><c>B </c><c>   1</c></rc>
    <rc><c>B </c><c>   1</c></rc>
    <rc><c>B </c><c>   1</c></rc>
    <rc><c>B </c><c>   1</c></rc>
    <rc><c>B </c><c>   1</c></rc>
    <rc><c>B </c><c>   1</c></rc>
    <rc><c>B </c><c>   1</c></rc>
    <rc><c>W </c><c>   2</c></rc>
    <rc><c>W </c><c>   2</c></rc>
    <rc><c>W </c><c>   2</c></rc>
    <rc><c>W </c><c>   2</c></rc>
   </set>
  </array>
  <array name="atomtypes" >
   <dimension dim="1">type</dimension>
   <field type="int">atomspertype</field>
   <field type="string">element</field>
   <field>mass</field>
   <field>valence</field>
   <field type="string">pseudopotential</field>
   <set>
    <rc><c>   8</c><c>B </c><c>     10.81100000</c><c>      3.00000000</c><c> PAW_PBE B 06Sep2000                    </c></rc>
    <rc><c>   4</c><c>W </c><c>    183.85000000</c><c>     12.00000000</c><c> PAW_PBE W_pv 06Sep2000                 </c></rc>
   </set>
  </array>
 </atominfo>
 <structure name="initialpos" >
  <crystal>
   <varray name="basis" >
    <v>       1.50938000      -2.61432300       0.00000000 </v>
    <v>       1.50938000       2.61432300       0.00000000 </v>
    <v>       0.00000000       0.00000000      14.08948700 </v>
   </varray>
   <i name="volume">    111.19442442 </i>
   <varray name="rec_basis" >
    <v>       0.33126184      -0.19125410       0.00000000 </v>
    <v>       0.33126184       0.19125410       0.00000000 </v>
    <v>       0.00000000       0.00000000       0.07097490 </v>
   </varray>
  </crystal>
  <varray name="positions" >
   <v>       0.00000000       0.00000000       0.75000000 </v>
   <v>       0.00000000       0.00000000       0.25000000 </v>
   <v>       0.66666700       0.33333300       0.25000000 </v>
   <v>       0.33333300       0.66666700       0.75000000 </v>
   <v>       0.66666700       0.33333300       0.02272500 </v>
   <v>       0.33333300       0.66666700       0.97727500 </v>
   <v>       0.33333300       0.66666700       0.52272500 </v>
   <v>       0.66666700       0.33333300       0.47727500 </v>
   <v>       0.66666700       0.33333300       0.86524000 </v>
   <v>       0.33333300       0.66666700       0.13476000 </v>
   <v>       0.33333300       0.66666700       0.36524000 </v>
   <v>       0.66666700       0.33333300       0.63476000 </v>
  </varray>
 </structure>
 <calculation>
  <scstep>
   <time name="dav">    5.90    5.91</time>
   <time name="total">    7.06    7.08</time>
   <energy>
    <i name="alphaZ">    670.54721324 </i>
    <i name="ewald">  -5338.58354683 </i>
    <i name="hartreedc">   -782.01650307 </i>
    <i name="XCdc">    215.90227644 </i>
    <i name="pawpsdc">   3356.95150771 </i>
    <i name="pawaedc">  -3312.47338159 </i>
    <i name="eentropy">     -0.00332483 </i>
    <i name="bandstr">    293.02921113 </i>
    <i name="atom">   5609.58864945 </i>
    <i name="e_fr_energy">    712.94210164 </i>
    <i name="e_wo_entrp">    712.94542647 </i>
    <i name="e_0_energy">    712.94376406 </i>
   </energy>
  </scstep>
  <scstep>
   <time name="dav">    5.84    5.85</time>
   <time name="total">    5.85    5.85</time>
   <energy>
    <i name="e_fr_energy">    -48.43225430 </i>
    <i name="e_wo_entrp">    -48.42946418 </i>
    <i name="e_0_energy">    -48.43085924 </i>
   </energy>
  </scstep>
  <scstep>
   <time name="dav">    7.18    7.18</time>
   <time name="total">    7.18    7.19</time>
   <energy>
    <i name="e_fr_energy">   -119.39810286 </i>
    <i name="e_wo_entrp">   -119.39563754 </i>
    <i name="e_0_energy">   -119.39687020 </i>
   </energy>
  </scstep>
  <scstep>
   <time name="dav">    7.03    7.03</time>
   <time name="total">    7.03    7.04</time>
   <energy>
    <i name="e_fr_energy">   -122.67924334 </i>
    <i name="e_wo_entrp">   -122.67377062 </i>
    <i name="e_0_energy">   -122.67650698 </i>
   </energy>
  </scstep>
  <scstep>
   <time name="dav">    7.00    7.01</time>
   <time name="total">    7.45    7.45</time>
   <energy>
    <i name="e_fr_energy">   -122.80116487 </i>
    <i name="e_wo_entrp">   -122.79678723 </i>
    <i name="e_0_energy">   -122.79897605 </i>
   </energy>
  </scstep>
  <scstep>
   <time name="diag">    1.03    1.03</time>
   <time name="diis">    5.77    5.77</time>
   <time name="orth">    0.03    0.03</time>
   <time name="total">    8.42    8.42</time>
   <energy>
    <i name="e_fr_energy">   -109.63785492 </i>
    <i name="e_wo_entrp">   -109.63208830 </i>
    <i name="e_0_energy">   -109.63497161 </i>
   </energy>
  </scstep>
  <scstep>
   <time name="diag">    1.03    1.03</time>
   <time name="diis">    6.16    6.16</time>
   <time name="orth">    0.03    0.03</time>
   <time name="total">    8.80    8.80</time>
   <energy>
    <i name="e_fr_energy">   -109.44666058 </i>
    <i name="e_wo_entrp">   -109.43851935 </i>
    <i name="e_0_energy">   -109.44258997 </i>
   </energy>
  </scstep>
  <scstep>
   <time name="diag">    1.03    1.03</time>
   <time name="diis">    5.46    5.46</time>
   <time name="orth">    0.03    0.03</time>
   <time name="total">    8.11    8.11</time>
   <energy>
    <i name="e_fr_energy">   -109.38286544 </i>
    <i name="e_wo_entrp">   -109.37542475 </i>
    <i name="e_0_energy">   -109.37914509 </i>
   </energy>
  </scstep>
  <scstep>
   <time name="diag">    1.03    1.03</time>
   <time name="diis">    5.36    5.36</time>
   <time name="orth">    0.03    0.03</time>
   <time name="total">    8.00    8.00</time>
   <energy>
    <i name="e_fr_energy">   -109.21273216 </i>
    <i name="e_wo_entrp">   -109.20437348 </i>
    <i name="e_0_energy">   -109.20855282 </i>
   </energy>
  </scstep>
  <scstep>
   <time name="diag">    1.03    1.03</time>
   <time name="diis">    5.63    5.63</time>
   <time name="orth">    0.03    0.03</time>
   <time name="total">    8.28    8.28</time>
   <energy>
    <i name="e_fr_energy">   -109.19690784 </i>
    <i name="e_wo_entrp">   -109.18811210 </i>
    <i name="e_0_energy">   -109.19250997 </i>
   </energy>
  </scstep>
  <scstep>
   <time name="diag">    1.03    1.03</time>
   <time name="diis">    5.51    5.51</time>
   <time name="orth">    0.03    0.03</time>
   <time name="total">    8.14    8.15</time>
   <energy>
    <i name="e_fr_energy">   -109.19295499 </i>
    <i name="e_wo_entrp">   -109.18391787 </i>
    <i name="e_0_energy">   -109.18843643 </i>
   </energy>
  </scstep>
  <scstep>
   <time name="diag">    1.03    1.03</time>
   <time name="diis">    5.75    5.75</time>
   <time name="orth">    0.03    0.03</time>
   <time name="total">    8.38    8.38</time>
   <energy>
    <i name="e_fr_energy">   -109.19315041 </i>
    <i name="e_wo_entrp">   -109.18412015 </i>
    <i name="e_0_energy">   -109.18863528 </i>
   </energy>
  </scstep>
  <scstep>
   <time name="diag">    1.03    1.03</time>
   <time name="diis">    4.94    4.94</time>
   <time name="orth">    0.03    0.03</time>
   <time name="total">    7.58    7.58</time>
   <energy>
    <i name="e_fr_energy">   -109.19317853 </i>
    <i name="e_wo_entrp">   -109.18415489 </i>
    <i name="e_0_energy">   -109.18866671 </i>
   </energy>
  </scstep>
  <scstep>
   <time name="diag">    1.03    1.03</time>
   <time name="diis">    5.43    5.43</time>
   <time name="orth">    0.03    0.03</time>
   <time name="total">    8.07    8.07</time>
   <energy>
    <i name="e_fr_energy">   -109.19315441 </i>
    <i name="e_wo_entrp">   -109.18412623 </i>
    <i name="e_0_energy">   -109.18864032 </i>
   </energy>
  </scstep>
  <scstep>
   <time name="diag">    1.03    1.03</time>
   <time name="diis">    3.48    3.48</time>
   <time name="orth">    0.03    0.03</time>
   <time name="total">    5.69    5.69</time>
   <energy>
    <i name="alphaZ">    670.54721324 </i>
    <i name="ewald">  -5338.58354683 </i>
    <i name="hartreedc">   -690.98939073 </i>
    <i name="XCdc">    213.30372798 </i>
    <i name="pawpsdc">   3690.13661538 </i>
    <i name="pawaedc">  -3662.93258967 </i>
    <i name="eentropy">     -0.00902874 </i>
    <i name="bandstr">   -600.25479827 </i>
    <i name="atom">   5609.58864945 </i>
    <i name="e_fr_energy">   -109.19314821 </i>
    <i name="e_wo_entrp">   -109.18411946 </i>
    <i name="e_0_energy">   -109.18863383 </i>
   </energy>
  </scstep>
  <structure>
   <crystal>
    <varray name="basis" >
     <v>       1.50938000      -2.61432300       0.00000000 </v>
     <v>       1.50938000       2.61432300       0.00000000 </v>
     <v>       0.00000000       0.00000000      14.08948700 </v>
    </varray>
    <i name="volume">    111.19442442 </i>
    <varray name="rec_basis" >
     <v>       0.33126184      -0.19125410       0.00000000 </v>
     <v>       0.33126184       0.19125410       0.00000000 </v>
     <v>       0.00000000       0.00000000       0.07097490 </v>
    </varray>
   </crystal>
   <varray name="positions" >
    <v>       0.00000000       0.00000000       0.75000000 </v>
    <v>       0.00000000       0.00000000       0.25000000 </v>
    <v>       0.66666700       0.33333300       0.25000000 </v>
    <v>       0.33333300       0.66666700       0.75000000 </v>
    <v>       0.66666700       0.33333300       0.02272500 </v>
    <v>       0.33333300       0.66666700       0.97727500 </v>
    <v>       0.33333300       0.66666700       0.52272500 </v>
    <v>       0.66666700       0.33333300       0.47727500 </v>
    <v>       0.66666700       0.33333300       0.86524000 </v>
    <v>       0.33333300       0.66666700       0.13476000 </v>
    <v>       0.33333300       0.66666700       0.36524000 </v>
    <v>       0.66666700       0.33333300       0.63476000 </v>
   </varray>
  </structure>
  <varray name="forces" >
   <v>       0.00000000       0.00000000      -0.00000000 </v>
   <v>       0.00000000      -0.00000000       0.00000000 </v>
   <v>      -0.00000000       0.00000000      -0.00000000 </v>
   <v>       0.00000000      -0.00000000      -0.00000000 </v>
   <v>       0.00000000       0.00000000       0.08470059 </v>
   <v>       0.00000000       0.00000000      -0.08470059 </v>
   <v>       0.00000000      -0.00000000       0.08470059 </v>
   <v>       0.00000000      -0.00000000      -0.08470059 </v>
   <v>       0.00000000      -0.00000000      -0.15340648 </v>
   <v>      -0.00000000      -0.00000000       0.15340648 </v>
   <v>      -0.00000000       0.00000000      -0.15340648 </v>
   <v>      -0.00000000      -0.00000000       0.15340648 </v>
  </varray>
  <varray name="stress" >
   <v>       6.64204255       0.00000000       0.00000000 </v>
   <v>      -0.00000000       6.64204332       0.00000000 </v>
   <v>       0.00000000       0.00000000       4.51178032 </v>
  </varray>
  <energy>
   <i name="e_fr_energy">   -109.19314821 </i>
   <i name="e_wo_entrp">   -109.18863383 </i>
   <i name="e_0_energy">     -0.00902874 </i>
  </energy>
  <time name="totalsc">  129.56  129.66</time>
  <eigenvalues>
   <array>
    <dimension dim="1">band</dimension>
    <dimension dim="2">kpoint</dimension>
    <dimension dim="3">spin</dimension>
    <field>eigene</field>
    <field>occ</field>
    <set>
     <set comment="spin 1">
      <set comment="kpoint 1">
       <r>  -30.4242    1.0000 </r>
       <r>  -30.4088    1.0000 </r>
       <r>  -30.3005    1.0000 </r>
       <r>  -30.2846    1.0000 </r>
       <r>  -29.9240    1.0000 </r>
       <r>  -29.9240    1.0000 </r>
       <r>  -29.9229    1.0000 </r>
       <r>  -29.9229    1.0000 </r>
       <r>  -29.9139    1.0000 </r>
       <r>  -29.9139    1.0000 </r>
       <r>  -29.9128    1.0000 </r>
       <r>  -29.9128    1.0000 </r>
       <r>   -6.6025    1.0000 </r>
       <r>   -6.3143    1.0000 </r>
       <r>   -4.3923    1.0000 </r>
       <r>   -3.4424    1.0000 </r>
       <r>   -1.4487    1.0000 </r>
       <r>    0.0221    1.0000 </r>
       <r>    1.6283    1.0000 </r>
       <r>    2.7508    1.0000 </r>
       <r>    4.2427    1.0000 </r>
       <r>    4.2427    1.0000 </r>
       <r>    4.2923    1.0000 </r>
       <r>    4.2923    1.0000 </r>
       <r>    4.6266    1.0000 </r>
       <r>    5.0076    1.0000 </r>
       <r>    6.1320    1.0000 </r>
       <r>    6.1321    1.0000 </r>
       <r>    6.2910    1.0000 </r>
       <r>    6.2911    1.0000 </r>
       <r>    6.7067    1.0000 </r>
       <r>    6.7067    1.0000 </r>
       <r>    6.7344    1.0000 </r>
       <r>    7.0702    1.0000 </r>
       <r>    7.2277    1.0000 </r>
       <r>    7.2277    1.0000 </r>
       <r>    7.9218    1.0000 </r>
       <r>    7.9218    1.0000 </r>
       <r>    9.0573    0.0000 </r>
       <r>    9.0573    0.0000 </r>
       <r>    9.3328    0.0000 </r>
       <r>    9.4396    0.0000 </r>
       <r>    9.4446    0.0000 </r>
      </set>
      <set comment="kpoint 2">
       <r>  -30.4046    1.0000 </r>
       <r>  -30.3907    1.0000 </r>
       <r>  -30.2830    1.0000 </r>
       <r>  -30.2686    1.0000 </r>
       <r>  -30.0316    1.0000 </r>
       <r>  -30.0307    1.0000 </r>
       <r>  -30.0201    1.0000 </r>
       <r>  -30.0191    1.0000 </r>
       <r>  -29.9493    1.0000 </r>
       <r>  -29.9480    1.0000 </r>
       <r>  -29.9386    1.0000 </r>
       <r>  -29.9373    1.0000 </r>
       <r>   -6.2029    1.0000 </r>
       <r>   -5.9549    1.0000 </r>
       <r>   -3.9979    1.0000 </r>
       <r>   -3.2454    1.0000 </r>
       <r>   -0.8201    1.0000 </r>
       <r>    0.4577    1.0000 </r>
       <r>    1.8133    1.0000 </r>
       <r>    2.9794    1.0000 </r>
       <r>    3.0841    1.0000 </r>
       <r>    3.2332    1.0000 </r>
       <r>    3.8384    1.0000 </r>
       <r>    3.9004    1.0000 </r>
       <r>    4.0100    1.0000 </r>
       <r>    4.8150    1.0000 </r>
       <r>    5.2722    1.0000 </r>
       <r>    5.3993    1.0000 </r>
       <r>    5.6433    1.0000 </r>
       <r>    5.8970    1.0000 </r>
       <r>    6.0683    1.0000 </r>
       <r>    6.1528    1.0000 </r>
       <r>    6.5511    1.0000 </r>
       <r>    6.6248    1.0000 </r>
       <r>    7.3195    1.0000 </r>
       <r>    7.3209    1.0000 </r>
       <r>    7.9704    1.0000 </r>
       <r>    8.5008    0.5526 </r>
       <r>    9.0753    0.0000 </r>
       <r>    9.1398    0.0000 </r>
       <r>    9.5648    0.0000 </r>
       <r>   10.0478    0.0000 </r>
       <r>   10.1191    0.0000 </r>
      </set>
      <set comment="kpoint 3">
       <r>  -30.3604    1.0000 </r>
       <r>  -30.3512    1.0000 </r>
       <r>  -30.2665    1.0000 </r>
       <r>  -30.2651    1.0000 </r>
       <r>  -30.2551    1.0000 </r>
       <r>  -30.2530    1.0000 </r>
       <r>  -30.2417    1.0000 </r>
       <r>  -30.2302    1.0000 </r>
       <r>  -30.0056    1.0000 </r>
       <r>  -30.0040    1.0000 </r>
       <r>  -29.9936    1.0000 </r>
       <r>  -29.9920    1.0000 </r>
       <r>   -5.1276    1.0000 </r>
       <r>   -4.9924    1.0000 </r>
       <r>   -2.9391    1.0000 </r>
       <r>   -2.6706    1.0000 </r>
       <r>    0.3613    1.0000 </r>
       <r>    0.6787    1.0000 </r>
       <r>    0.8531    1.0000 </r>
       <r>    1.3742    1.0000 </r>
       <r>    2.5906    1.0000 </r>
       <r>    2.6483    1.0000 </r>
       <r>    2.8839    1.0000 </r>
       <r>    2.9970    1.0000 </r>
       <r>    3.7822    1.0000 </r>
       <r>    3.9503    1.0000 </r>
       <r>    4.0632    1.0000 </r>
       <r>    4.3247    1.0000 </r>
       <r>    4.4555    1.0000 </r>
       <r>    4.9611    1.0000 </r>
       <r>    5.4793    1.0000 </r>
       <r>    5.8383    1.0000 </r>
       <r>    5.9349    1.0000 </r>
       <r>    6.0057    1.0000 </r>
       <r>    8.4458    0.9543 </r>
       <r>    8.5820    0.0152 </r>
       <r>    9.0223    0.0000 </r>
       <r>    9.1690    0.0000 </r>
       <r>    9.2710    0.0000 </r>
       <r>    9.3323    0.0000 </r>
       <r>   10.0708    0.0000 </r>
       <r>   10.5648    0.0000 </r>
       <r>   10.6289    0.0000 </r>
      </set>
      <set comment="kpoint 4">
       <r>  -30.4515    1.0000 </r>
       <r>  -30.4501    1.0000 </r>
       <r>  -30.4340    1.0000 </r>
       <r>  -30.4326    1.0000 </r>
       <r>  -30.3221    1.0000 </r>
       <r>  -30.3163    1.0000 </r>
       <r>  -30.2097    1.0000 </r>
       <r>  -30.2040    1.0000 </r>
       <r>  -30.0503    1.0000 </r>
       <r>  -30.0485    1.0000 </r>
       <r>  -30.0373    1.0000 </r>
       <r>  -30.0355    1.0000 </r>
       <r>   -3.6892    1.0000 </r>
       <r>   -3.6179    1.0000 </r>
       <r>   -2.3339    1.0000 </r>
       <r>   -1.7032    1.0000 </r>
       <r>   -1.4677    1.0000 </r>
       <r>   -0.3425    1.0000 </r>
       <r>    0.4922    1.0000 </r>
       <r>    0.9827    1.0000 </r>
       <r>    1.6960    1.0000 </r>
       <r>    2.2446    1.0000 </r>
       <r>    2.3986    1.0000 </r>
       <r>    2.6529    1.0000 </r>
       <r>    3.1427    1.0000 </r>
       <r>    3.4407    1.0000 </r>
       <r>    3.4500    1.0000 </r>
       <r>    3.5323    1.0000 </r>
       <r>    4.9766    1.0000 </r>
       <r>    4.9953    1.0000 </r>
       <r>    5.2061    1.0000 </r>
       <r>    5.7100    1.0000 </r>
       <r>    5.9593    1.0000 </r>
       <r>    5.9638    1.0000 </r>
       <r>    8.2937    1.0000 </r>
       <r>    9.9689    0.0000 </r>
       <r>   10.0936    0.0000 </r>
       <r>   10.6186    0.0000 </r>
       <r>   10.6655    0.0000 </r>
       <r>   11.0367    0.0000 </r>
       <r>   11.0696    0.0000 </r>
       <r>   11.5819    0.0000 </r>
       <r>   12.6252    0.0000 </r>
      </set>
      <set comment="kpoint 5">
       <r>  -30.3725    1.0000 </r>
       <r>  -30.3616    1.0000 </r>
       <r>  -30.2543    1.0000 </r>
       <r>  -30.2431    1.0000 </r>
       <r>  -30.1869    1.0000 </r>
       <r>  -30.1867    1.0000 </r>
       <r>  -30.1734    1.0000 </r>
       <r>  -30.1731    1.0000 </r>
       <r>  -30.0054    1.0000 </r>
       <r>  -30.0043    1.0000 </r>
       <r>  -29.9936    1.0000 </r>
       <r>  -29.9925    1.0000 </r>
       <r>   -5.4641    1.0000 </r>
       <r>   -5.2938    1.0000 </r>
       <r>   -3.2708    1.0000 </r>
       <r>   -2.8453    1.0000 </r>
       <r>    0.2949    1.0000 </r>
       <r>    1.2033    1.0000 </r>
       <r>    1.4841    1.0000 </r>
       <r>    1.5787    1.0000 </r>
       <r>    1.8566    1.0000 </r>
       <r>    2.8243    1.0000 </r>
       <r>    3.0792    1.0000 </r>
       <r>    3.1282    1.0000 </r>
       <r>    3.8800    1.0000 </r>
       <r>    4.5241    1.0000 </r>
       <r>    4.5293    1.0000 </r>
       <r>    4.6423    1.0000 </r>
       <r>    4.6781    1.0000 </r>
       <r>    5.0359    1.0000 </r>
       <r>    5.3944    1.0000 </r>
       <r>    5.5837    1.0000 </r>
       <r>    6.1299    1.0000 </r>
       <r>    6.7926    1.0000 </r>
       <r>    6.9622    1.0000 </r>
       <r>    7.9477    1.0000 </r>
       <r>    8.3718    0.9999 </r>
       <r>    8.6905    0.0000 </r>
       <r>    9.2001    0.0000 </r>
       <r>    9.9346    0.0000 </r>
       <r>   10.0220    0.0000 </r>
       <r>   10.7138    0.0000 </r>
       <r>   10.9564    0.0000 </r>
      </set>
      <set comment="kpoint 6">
       <r>  -30.3687    1.0000 </r>
       <r>  -30.3672    1.0000 </r>
       <r>  -30.3504    1.0000 </r>
       <r>  -30.3495    1.0000 </r>
       <r>  -30.3295    1.0000 </r>
       <r>  -30.3213    1.0000 </r>
       <r>  -30.2173    1.0000 </r>
       <r>  -30.2100    1.0000 </r>
       <r>  -30.0867    1.0000 </r>
       <r>  -30.0852    1.0000 </r>
       <r>  -30.0734    1.0000 </r>
       <r>  -30.0719    1.0000 </r>
       <r>   -4.1831    1.0000 </r>
       <r>   -4.1334    1.0000 </r>
       <r>   -2.1167    1.0000 </r>
       <r>   -1.9886    1.0000 </r>
       <r>   -0.5153    1.0000 </r>
       <r>   -0.1413    1.0000 </r>
       <r>    1.3568    1.0000 </r>
       <r>    1.4884    1.0000 </r>
       <r>    1.8386    1.0000 </r>
       <r>    1.8575    1.0000 </r>
       <r>    1.9334    1.0000 </r>
       <r>    2.4561    1.0000 </r>
       <r>    3.4787    1.0000 </r>
       <r>    3.4835    1.0000 </r>
       <r>    3.8507    1.0000 </r>
       <r>    4.1923    1.0000 </r>
       <r>    4.2223    1.0000 </r>
       <r>    4.5824    1.0000 </r>
       <r>    4.7586    1.0000 </r>
       <r>    5.6881    1.0000 </r>
       <r>    5.8387    1.0000 </r>
       <r>    6.3875    1.0000 </r>
       <r>    7.4706    1.0000 </r>
       <r>    8.2125    1.0000 </r>
       <r>    9.5612    0.0000 </r>
       <r>    9.7993    0.0000 </r>
       <r>    9.9457    0.0000 </r>
       <r>   10.7850    0.0000 </r>
       <r>   11.2260    0.0000 </r>
       <r>   11.3194    0.0000 </r>
       <r>   11.7356    0.0000 </r>
      </set>
      <set comment="kpoint 7">
       <r>  -30.4437    1.0000 </r>
       <r>  -30.4423    1.0000 </r>
       <r>  -30.4264    1.0000 </r>
       <r>  -30.4249    1.0000 </r>
       <r>  -30.3115    1.0000 </r>
       <r>  -30.3080    1.0000 </r>
       <r>  -30.2002    1.0000 </r>
       <r>  -30.1965    1.0000 </r>
       <r>  -30.1237    1.0000 </r>
       <r>  -30.1219    1.0000 </r>
       <r>  -30.1097    1.0000 </r>
       <r>  -30.1080    1.0000 </r>
       <r>   -2.9012    1.0000 </r>
       <r>   -2.8824    1.0000 </r>
       <r>   -2.3562    1.0000 </r>
       <r>   -2.1830    1.0000 </r>
       <r>   -0.6516    1.0000 </r>
       <r>   -0.1734    1.0000 </r>
       <r>    0.1265    1.0000 </r>
       <r>    0.3023    1.0000 </r>
       <r>    1.3314    1.0000 </r>
       <r>    1.4880    1.0000 </r>
       <r>    2.2612    1.0000 </r>
       <r>    3.0623    1.0000 </r>
       <r>    3.1059    1.0000 </r>
       <r>    3.1981    1.0000 </r>
       <r>    3.2937    1.0000 </r>
       <r>    3.8849    1.0000 </r>
       <r>    4.0135    1.0000 </r>
       <r>    4.8552    1.0000 </r>
       <r>    5.2573    1.0000 </r>
       <r>    5.4354    1.0000 </r>
       <r>    5.8587    1.0000 </r>
       <r>    6.5062    1.0000 </r>
       <r>    7.2075    1.0000 </r>
       <r>    9.9838    0.0000 </r>
       <r>   10.2521    0.0000 </r>
       <r>   10.2853    0.0000 </r>
       <r>   10.8124    0.0000 </r>
       <r>   10.8397    0.0000 </r>
       <r>   11.1953    0.0000 </r>
       <r>   11.5637    0.0000 </r>
       <r>   11.9200    0.0000 </r>
      </set>
      <set comment="kpoint 8">
       <r>  -30.3703    1.0000 </r>
       <r>  -30.3698    1.0000 </r>
       <r>  -30.3536    1.0000 </r>
       <r>  -30.3528    1.0000 </r>
       <r>  -30.3068    1.0000 </r>
       <r>  -30.3037    1.0000 </r>
       <r>  -30.2281    1.0000 </r>
       <r>  -30.2268    1.0000 </r>
       <r>  -30.2132    1.0000 </r>
       <r>  -30.2116    1.0000 </r>
       <r>  -30.1958    1.0000 </r>
       <r>  -30.1932    1.0000 </r>
       <r>   -2.8669    1.0000 </r>
       <r>   -2.8380    1.0000 </r>
       <r>   -1.3539    1.0000 </r>
       <r>   -1.3361    1.0000 </r>
       <r>   -1.1981    1.0000 </r>
       <r>   -0.5706    1.0000 </r>
       <r>   -0.1793    1.0000 </r>
       <r>    0.9518    1.0000 </r>
       <r>    0.9670    1.0000 </r>
       <r>    1.2334    1.0000 </r>
       <r>    2.1244    1.0000 </r>
       <r>    2.3081    1.0000 </r>
       <r>    3.1332    1.0000 </r>
       <r>    3.3289    1.0000 </r>
       <r>    3.6185    1.0000 </r>
       <r>    3.6471    1.0000 </r>
       <r>    4.5355    1.0000 </r>
       <r>    4.5950    1.0000 </r>
       <r>    4.6305    1.0000 </r>
       <r>    5.0457    1.0000 </r>
       <r>    5.9210    1.0000 </r>
       <r>    6.4455    1.0000 </r>
       <r>    7.6514    1.0000 </r>
       <r>    8.7176    0.0000 </r>
       <r>    9.6482    0.0000 </r>
       <r>   10.2483    0.0000 </r>
       <r>   10.5020    0.0000 </r>
       <r>   10.5228    0.0000 </r>
       <r>   10.9399    0.0000 </r>
       <r>   11.4416    0.0000 </r>
       <r>   11.6224    0.0000 </r>
      </set>
      <set comment="kpoint 9">
       <r>  -30.4170    1.0000 </r>
       <r>  -30.4170    1.0000 </r>
       <r>  -30.2921    1.0000 </r>
       <r>  -30.2921    1.0000 </r>
       <r>  -29.9235    1.0000 </r>
       <r>  -29.9235    1.0000 </r>
       <r>  -29.9235    1.0000 </r>
       <r>  -29.9235    1.0000 </r>
       <r>  -29.9133    1.0000 </r>
       <r>  -29.9133    1.0000 </r>
       <r>  -29.9133    1.0000 </r>
       <r>  -29.9133    1.0000 </r>
       <r>   -6.4743    1.0000 </r>
       <r>   -6.4743    1.0000 </r>
       <r>   -3.9636    1.0000 </r>
       <r>   -3.9636    1.0000 </r>
       <r>   -0.7444    1.0000 </r>
       <r>   -0.7444    1.0000 </r>
       <r>    2.2654    1.0000 </r>
       <r>    2.2654    1.0000 </r>
       <r>    4.2676    1.0000 </r>
       <r>    4.2676    1.0000 </r>
       <r>    4.2677    1.0000 </r>
       <r>    4.2677    1.0000 </r>
       <r>    4.8277    1.0000 </r>
       <r>    4.8277    1.0000 </r>
       <r>    6.1726    1.0000 </r>
       <r>    6.1726    1.0000 </r>
       <r>    6.1726    1.0000 </r>
       <r>    6.1726    1.0000 </r>
       <r>    6.9043    1.0000 </r>
       <r>    6.9043    1.0000 </r>
       <r>    6.9963    1.0000 </r>
       <r>    6.9963    1.0000 </r>
       <r>    6.9964    1.0000 </r>
       <r>    6.9964    1.0000 </r>
       <r>    8.3031    1.0000 </r>
       <r>    8.3031    1.0000 </r>
       <r>    8.3031    1.0000 </r>
       <r>    8.3031    1.0000 </r>
       <r>    9.5959    0.0000 </r>
       <r>    9.5959    0.0000 </r>
       <r>    9.5959    0.0000 </r>
      </set>
      <set comment="kpoint 10">
       <r>  -30.3981    1.0000 </r>
       <r>  -30.3981    1.0000 </r>
       <r>  -30.2754    1.0000 </r>
       <r>  -30.2754    1.0000 </r>
       <r>  -30.0311    1.0000 </r>
       <r>  -30.0311    1.0000 </r>
       <r>  -30.0196    1.0000 </r>
       <r>  -30.0196    1.0000 </r>
       <r>  -29.9487    1.0000 </r>
       <r>  -29.9487    1.0000 </r>
       <r>  -29.9379    1.0000 </r>
       <r>  -29.9379    1.0000 </r>
       <r>   -6.0907    1.0000 </r>
       <r>   -6.0907    1.0000 </r>
       <r>   -3.6451    1.0000 </r>
       <r>   -3.6451    1.0000 </r>
       <r>   -0.2412    1.0000 </r>
       <r>   -0.2411    1.0000 </r>
       <r>    2.4743    1.0000 </r>
       <r>    2.4743    1.0000 </r>
       <r>    3.1007    1.0000 </r>
       <r>    3.1007    1.0000 </r>
       <r>    3.8689    1.0000 </r>
       <r>    3.8689    1.0000 </r>
       <r>    4.4779    1.0000 </r>
       <r>    4.4779    1.0000 </r>
       <r>    5.2716    1.0000 </r>
       <r>    5.2716    1.0000 </r>
       <r>    5.9729    1.0000 </r>
       <r>    5.9729    1.0000 </r>
       <r>    5.9749    1.0000 </r>
       <r>    5.9749    1.0000 </r>
       <r>    6.5723    1.0000 </r>
       <r>    6.5723    1.0000 </r>
       <r>    7.3447    1.0000 </r>
       <r>    7.3447    1.0000 </r>
       <r>    8.3327    1.0000 </r>
       <r>    8.3327    1.0000 </r>
       <r>    8.8070    0.0000 </r>
       <r>    8.8070    0.0000 </r>
       <r>    9.9913    0.0000 </r>
       <r>   10.0529    0.0000 </r>
       <r>   10.3943    0.0000 </r>
      </set>
      <set comment="kpoint 11">
       <r>  -30.3560    1.0000 </r>
       <r>  -30.3559    1.0000 </r>
       <r>  -30.2661    1.0000 </r>
       <r>  -30.2661    1.0000 </r>
       <r>  -30.2540    1.0000 </r>
       <r>  -30.2540    1.0000 </r>
       <r>  -30.2355    1.0000 </r>
       <r>  -30.2355    1.0000 </r>
       <r>  -30.0048    1.0000 </r>
       <r>  -30.0048    1.0000 </r>
       <r>  -29.9928    1.0000 </r>
       <r>  -29.9927    1.0000 </r>
       <r>   -5.0632    1.0000 </r>
       <r>   -5.0632    1.0000 </r>
       <r>   -2.8034    1.0000 </r>
       <r>   -2.8034    1.0000 </r>
       <r>    0.4604    1.0000 </r>
       <r>    0.4604    1.0000 </r>
       <r>    1.1747    1.0000 </r>
       <r>    1.1747    1.0000 </r>
       <r>    2.6142    1.0000 </r>
       <r>    2.6142    1.0000 </r>
       <r>    2.9380    1.0000 </r>
       <r>    2.9380    1.0000 </r>
       <r>    3.8964    1.0000 </r>
       <r>    3.8964    1.0000 </r>
       <r>    4.0959    1.0000 </r>
       <r>    4.0959    1.0000 </r>
       <r>    4.7700    1.0000 </r>
       <r>    4.7700    1.0000 </r>
       <r>    5.6556    1.0000 </r>
       <r>    5.6556    1.0000 </r>
       <r>    5.9905    1.0000 </r>
       <r>    5.9905    1.0000 </r>
       <r>    8.4978    0.5864 </r>
       <r>    8.4978    0.5864 </r>
       <r>    9.0864    0.0000 </r>
       <r>    9.0864    0.0000 </r>
       <r>    9.2953    0.0000 </r>
       <r>    9.2953    0.0000 </r>
       <r>   10.5461    0.0000 </r>
       <r>   10.5468    0.0000 </r>
       <r>   10.6799    0.0000 </r>
      </set>
      <set comment="kpoint 12">
       <r>  -30.4508    1.0000 </r>
       <r>  -30.4508    1.0000 </r>
       <r>  -30.4333    1.0000 </r>
       <r>  -30.4333    1.0000 </r>
       <r>  -30.3193    1.0000 </r>
       <r>  -30.3193    1.0000 </r>
       <r>  -30.2068    1.0000 </r>
       <r>  -30.2068    1.0000 </r>
       <r>  -30.0494    1.0000 </r>
       <r>  -30.0494    1.0000 </r>
       <r>  -30.0363    1.0000 </r>
       <r>  -30.0363    1.0000 </r>
       <r>   -3.6538    1.0000 </r>
       <r>   -3.6538    1.0000 </r>
       <r>   -2.1467    1.0000 </r>
       <r>   -2.1467    1.0000 </r>
       <r>   -0.8062    1.0000 </r>
       <r>   -0.8062    1.0000 </r>
       <r>    0.6851    1.0000 </r>
       <r>    0.6851    1.0000 </r>
       <r>    2.2453    1.0000 </r>
       <r>    2.2453    1.0000 </r>
       <r>    2.3170    1.0000 </r>
       <r>    2.3170    1.0000 </r>
       <r>    3.2236    1.0000 </r>
       <r>    3.2236    1.0000 </r>
       <r>    3.5553    1.0000 </r>
       <r>    3.5553    1.0000 </r>
       <r>    5.1432    1.0000 </r>
       <r>    5.1432    1.0000 </r>
       <r>    5.3040    1.0000 </r>
       <r>    5.3040    1.0000 </r>
       <r>    5.9294    1.0000 </r>
       <r>    5.9294    1.0000 </r>
       <r>    9.0545    0.0000 </r>
       <r>    9.0545    0.0000 </r>
       <r>   10.2365    0.0000 </r>
       <r>   10.2365    0.0000 </r>
       <r>   10.9163    0.0000 </r>
       <r>   10.9256    0.0000 </r>
       <r>   11.3030    0.0000 </r>
       <r>   11.3210    0.0000 </r>
       <r>   12.6192    0.0000 </r>
      </set>
      <set comment="kpoint 13">
       <r>  -30.3673    1.0000 </r>
       <r>  -30.3673    1.0000 </r>
       <r>  -30.2484    1.0000 </r>
       <r>  -30.2484    1.0000 </r>
       <r>  -30.1868    1.0000 </r>
       <r>  -30.1868    1.0000 </r>
       <r>  -30.1733    1.0000 </r>
       <r>  -30.1733    1.0000 </r>
       <r>  -30.0049    1.0000 </r>
       <r>  -30.0049    1.0000 </r>
       <r>  -29.9930    1.0000 </r>
       <r>  -29.9930    1.0000 </r>
       <r>   -5.3843    1.0000 </r>
       <r>   -5.3843    1.0000 </r>
       <r>   -3.0613    1.0000 </r>
       <r>   -3.0613    1.0000 </r>
       <r>    0.6461    1.0000 </r>
       <r>    0.6461    1.0000 </r>
       <r>    1.5750    1.0000 </r>
       <r>    1.5750    1.0000 </r>
       <r>    2.3526    1.0000 </r>
       <r>    2.3526    1.0000 </r>
       <r>    3.1155    1.0000 </r>
       <r>    3.1155    1.0000 </r>
       <r>    4.2212    1.0000 </r>
       <r>    4.2212    1.0000 </r>
       <r>    4.6432    1.0000 </r>
       <r>    4.6432    1.0000 </r>
       <r>    4.7529    1.0000 </r>
       <r>    4.7529    1.0000 </r>
       <r>    5.6081    1.0000 </r>
       <r>    5.6081    1.0000 </r>
       <r>    6.2643    1.0000 </r>
       <r>    6.2643    1.0000 </r>
       <r>    7.5854    1.0000 </r>
       <r>    7.5854    1.0000 </r>
       <r>    8.4909    0.6602 </r>
       <r>    8.4909    0.6602 </r>
       <r>    9.5824    0.0000 </r>
       <r>    9.5824    0.0000 </r>
       <r>   10.3924    0.0000 </r>
       <r>   10.3957    0.0000 </r>
       <r>   11.2565    0.0000 </r>
      </set>
      <set comment="kpoint 14">
       <r>  -30.3680    1.0000 </r>
       <r>  -30.3680    1.0000 </r>
       <r>  -30.3500    1.0000 </r>
       <r>  -30.3500    1.0000 </r>
       <r>  -30.3254    1.0000 </r>
       <r>  -30.3254    1.0000 </r>
       <r>  -30.2135    1.0000 </r>
       <r>  -30.2135    1.0000 </r>
       <r>  -30.0860    1.0000 </r>
       <r>  -30.0860    1.0000 </r>
       <r>  -30.0726    1.0000 </r>
       <r>  -30.0726    1.0000 </r>
       <r>   -4.1583    1.0000 </r>
       <r>   -4.1583    1.0000 </r>
       <r>   -2.0603    1.0000 </r>
       <r>   -2.0603    1.0000 </r>
       <r>   -0.3201    1.0000 </r>
       <r>   -0.3201    1.0000 </r>
       <r>    1.4544    1.0000 </r>
       <r>    1.4544    1.0000 </r>
       <r>    1.6894    1.0000 </r>
       <r>    1.6894    1.0000 </r>
       <r>    2.3240    1.0000 </r>
       <r>    2.3240    1.0000 </r>
       <r>    3.4791    1.0000 </r>
       <r>    3.4791    1.0000 </r>
       <r>    3.9445    1.0000 </r>
       <r>    3.9445    1.0000 </r>
       <r>    4.4257    1.0000 </r>
       <r>    4.4257    1.0000 </r>
       <r>    5.2342    1.0000 </r>
       <r>    5.2342    1.0000 </r>
       <r>    6.0463    1.0000 </r>
       <r>    6.0463    1.0000 </r>
       <r>    8.1837    1.0000 </r>
       <r>    8.1837    1.0000 </r>
       <r>    9.0800    0.0000 </r>
       <r>    9.0800    0.0000 </r>
       <r>   10.7518    0.0000 </r>
       <r>   10.7533    0.0000 </r>
       <r>   11.2831    0.0000 </r>
       <r>   11.3374    0.0000 </r>
       <r>   11.6820    0.0000 </r>
      </set>
      <set comment="kpoint 15">
       <r>  -30.4430    1.0000 </r>
       <r>  -30.4430    1.0000 </r>
       <r>  -30.4256    1.0000 </r>
       <r>  -30.4256    1.0000 </r>
       <r>  -30.3098    1.0000 </r>
       <r>  -30.3098    1.0000 </r>
       <r>  -30.1984    1.0000 </r>
       <r>  -30.1984    1.0000 </r>
       <r>  -30.1228    1.0000 </r>
       <r>  -30.1228    1.0000 </r>
       <r>  -30.1088    1.0000 </r>
       <r>  -30.1088    1.0000 </r>
       <r>   -2.8871    1.0000 </r>
       <r>   -2.8871    1.0000 </r>
       <r>   -2.2879    1.0000 </r>
       <r>   -2.2879    1.0000 </r>
       <r>   -0.4016    1.0000 </r>
       <r>   -0.4016    1.0000 </r>
       <r>    0.2230    1.0000 </r>
       <r>    0.2230    1.0000 </r>
       <r>    1.3445    1.0000 </r>
       <r>    1.3445    1.0000 </r>
       <r>    2.6461    1.0000 </r>
       <r>    2.6461    1.0000 </r>
       <r>    3.2352    1.0000 </r>
       <r>    3.2352    1.0000 </r>
       <r>    3.4912    1.0000 </r>
       <r>    3.4912    1.0000 </r>
       <r>    4.4797    1.0000 </r>
       <r>    4.4797    1.0000 </r>
       <r>    5.4781    1.0000 </r>
       <r>    5.4781    1.0000 </r>
       <r>    5.9104    1.0000 </r>
       <r>    5.9104    1.0000 </r>
       <r>    8.4176    0.9935 </r>
       <r>    8.4176    0.9935 </r>
       <r>   10.3836    0.0000 </r>
       <r>   10.3836    0.0000 </r>
       <r>   11.0920    0.0000 </r>
       <r>   11.0920    0.0000 </r>
       <r>   11.5262    0.0000 </r>
       <r>   11.5291    0.0000 </r>
       <r>   12.1264    0.0000 </r>
      </set>
      <set comment="kpoint 16">
       <r>  -30.3700    1.0000 </r>
       <r>  -30.3700    1.0000 </r>
       <r>  -30.3532    1.0000 </r>
       <r>  -30.3532    1.0000 </r>
       <r>  -30.3053    1.0000 </r>
       <r>  -30.3052    1.0000 </r>
       <r>  -30.2275    1.0000 </r>
       <r>  -30.2275    1.0000 </r>
       <r>  -30.2123    1.0000 </r>
       <r>  -30.2123    1.0000 </r>
       <r>  -30.1945    1.0000 </r>
       <r>  -30.1945    1.0000 </r>
       <r>   -2.8525    1.0000 </r>
       <r>   -2.8525    1.0000 </r>
       <r>   -1.3452    1.0000 </r>
       <r>   -1.3452    1.0000 </r>
       <r>   -0.9934    1.0000 </r>
       <r>   -0.9934    1.0000 </r>
       <r>    0.4264    1.0000 </r>
       <r>    0.4264    1.0000 </r>
       <r>    1.1523    1.0000 </r>
       <r>    1.1523    1.0000 </r>
       <r>    2.2197    1.0000 </r>
       <r>    2.2197    1.0000 </r>
       <r>    3.2351    1.0000 </r>
       <r>    3.2351    1.0000 </r>
       <r>    3.6731    1.0000 </r>
       <r>    3.6731    1.0000 </r>
       <r>    4.3676    1.0000 </r>
       <r>    4.3676    1.0000 </r>
       <r>    5.0266    1.0000 </r>
       <r>    5.0266    1.0000 </r>
       <r>    6.1069    1.0000 </r>
       <r>    6.1069    1.0000 </r>
       <r>    8.3972    0.9989 </r>
       <r>    8.3972    0.9989 </r>
       <r>    9.2835    0.0000 </r>
       <r>    9.2835    0.0000 </r>
       <r>   11.0720    0.0000 </r>
       <r>   11.0768    0.0000 </r>
       <r>   11.4066    0.0000 </r>
       <r>   11.4232    0.0000 </r>
       <r>   11.8416    0.0000 </r>
      </set>
     </set>
    </set>
   </array>
  </eigenvalues>
  <separator name="orbital magnetization" >
   <v name="MAGDIPOLOUT">      0.00000000      0.00000000      0.00000000</v>
  </separator>
  <dos>
   <i name="efermi">      8.50551613 </i>
   <total>
    <array>
     <dimension dim="1">gridpoints</dimension>
     <dimension dim="2">spin</dimension>
     <field>energy</field>
     <field>total</field>
     <field>integrated</field>
     <set>
      <set comment="spin 1">
       <r>   -32.6053     0.0000     0.0000 </r>
       <r>   -32.4474     0.0000     0.0000 </r>
       <r>   -32.2894     0.0000     0.0000 </r>
       <r>   -32.1315     0.0000     0.0000 </r>
       <r>   -31.9735     0.0000     0.0000 </r>
       <r>   -31.8156     0.0000     0.0000 </r>
       <r>   -31.6576     0.0000     0.0000 </r>
       <r>   -31.4997     0.0000     0.0000 </r>
       <r>   -31.3417     0.0000     0.0000 </r>
       <r>   -31.1838     0.0000     0.0000 </r>
       <r>   -31.0258     0.0000     0.0000 </r>
       <r>   -30.8679     0.0000     0.0000 </r>
       <r>   -30.7099     0.0000     0.0000 </r>
       <r>   -30.5520     0.0115     0.0018 </r>
       <r>   -30.3940    17.6869     2.7954 </r>
       <r>   -30.2361    55.2252    11.5181 </r>
       <r>   -30.0782    40.5853    17.9285 </r>
       <r>   -29.9202    35.5689    23.5465 </r>
       <r>   -29.7623     2.8710    24.0000 </r>
       <r>   -29.6043     0.0000    24.0000 </r>
       <r>   -29.4464     0.0000    24.0000 </r>
       <r>   -29.2884     0.0000    24.0000 </r>
       <r>   -29.1305     0.0000    24.0000 </r>
       <r>   -28.9725     0.0000    24.0000 </r>
       <r>   -28.8146     0.0000    24.0000 </r>
       <r>   -28.6566     0.0000    24.0000 </r>
       <r>   -28.4987     0.0000    24.0000 </r>
       <r>   -28.3407     0.0000    24.0000 </r>
       <r>   -28.1828     0.0000    24.0000 </r>
       <r>   -28.0248     0.0000    24.0000 </r>
       <r>   -27.8669     0.0000    24.0000 </r>
       <r>   -27.7089     0.0000    24.0000 </r>
       <r>   -27.5510     0.0000    24.0000 </r>
       <r>   -27.3930     0.0000    24.0000 </r>
       <r>   -27.2351     0.0000    24.0000 </r>
       <r>   -27.0771     0.0000    24.0000 </r>
       <r>   -26.9192     0.0000    24.0000 </r>
       <r>   -26.7612     0.0000    24.0000 </r>
       <r>   -26.6033     0.0000    24.0000 </r>
       <r>   -26.4453     0.0000    24.0000 </r>
       <r>   -26.2874     0.0000    24.0000 </r>
       <r>   -26.1295     0.0000    24.0000 </r>
       <r>   -25.9715     0.0000    24.0000 </r>
       <r>   -25.8136     0.0000    24.0000 </r>
       <r>   -25.6556     0.0000    24.0000 </r>
       <r>   -25.4977     0.0000    24.0000 </r>
       <r>   -25.3397     0.0000    24.0000 </r>
       <r>   -25.1818     0.0000    24.0000 </r>
       <r>   -25.0238     0.0000    24.0000 </r>
       <r>   -24.8659     0.0000    24.0000 </r>
       <r>   -24.7079     0.0000    24.0000 </r>
       <r>   -24.5500     0.0000    24.0000 </r>
       <r>   -24.3920     0.0000    24.0000 </r>
       <r>   -24.2341     0.0000    24.0000 </r>
       <r>   -24.0761     0.0000    24.0000 </r>
       <r>   -23.9182     0.0000    24.0000 </r>
       <r>   -23.7602     0.0000    24.0000 </r>
       <r>   -23.6023     0.0000    24.0000 </r>
       <r>   -23.4443     0.0000    24.0000 </r>
       <r>   -23.2864     0.0000    24.0000 </r>
       <r>   -23.1284     0.0000    24.0000 </r>
       <r>   -22.9705     0.0000    24.0000 </r>
       <r>   -22.8125     0.0000    24.0000 </r>
       <r>   -22.6546     0.0000    24.0000 </r>
       <r>   -22.4967     0.0000    24.0000 </r>
       <r>   -22.3387     0.0000    24.0000 </r>
       <r>   -22.1808     0.0000    24.0000 </r>
       <r>   -22.0228     0.0000    24.0000 </r>
       <r>   -21.8649     0.0000    24.0000 </r>
       <r>   -21.7069     0.0000    24.0000 </r>
       <r>   -21.5490     0.0000    24.0000 </r>
       <r>   -21.3910     0.0000    24.0000 </r>
       <r>   -21.2331     0.0000    24.0000 </r>
       <r>   -21.0751     0.0000    24.0000 </r>
       <r>   -20.9172     0.0000    24.0000 </r>
       <r>   -20.7592     0.0000    24.0000 </r>
       <r>   -20.6013     0.0000    24.0000 </r>
       <r>   -20.4433     0.0000    24.0000 </r>
       <r>   -20.2854     0.0000    24.0000 </r>
       <r>   -20.1274     0.0000    24.0000 </r>
       <r>   -19.9695     0.0000    24.0000 </r>
       <r>   -19.8115     0.0000    24.0000 </r>
       <r>   -19.6536     0.0000    24.0000 </r>
       <r>   -19.4956     0.0000    24.0000 </r>
       <r>   -19.3377     0.0000    24.0000 </r>
       <r>   -19.1797     0.0000    24.0000 </r>
       <r>   -19.0218     0.0000    24.0000 </r>
       <r>   -18.8639     0.0000    24.0000 </r>
       <r>   -18.7059     0.0000    24.0000 </r>
       <r>   -18.5480     0.0000    24.0000 </r>
       <r>   -18.3900     0.0000    24.0000 </r>
       <r>   -18.2321     0.0000    24.0000 </r>
       <r>   -18.0741     0.0000    24.0000 </r>
       <r>   -17.9162     0.0000    24.0000 </r>
       <r>   -17.7582     0.0000    24.0000 </r>
       <r>   -17.6003     0.0000    24.0000 </r>
       <r>   -17.4423     0.0000    24.0000 </r>
       <r>   -17.2844     0.0000    24.0000 </r>
       <r>   -17.1264     0.0000    24.0000 </r>
       <r>   -16.9685     0.0000    24.0000 </r>
       <r>   -16.8105     0.0000    24.0000 </r>
       <r>   -16.6526     0.0000    24.0000 </r>
       <r>   -16.4946     0.0000    24.0000 </r>
       <r>   -16.3367     0.0000    24.0000 </r>
       <r>   -16.1787     0.0000    24.0000 </r>
       <r>   -16.0208     0.0000    24.0000 </r>
       <r>   -15.8628     0.0000    24.0000 </r>
       <r>   -15.7049     0.0000    24.0000 </r>
       <r>   -15.5469     0.0000    24.0000 </r>
       <r>   -15.3890     0.0000    24.0000 </r>
       <r>   -15.2310     0.0000    24.0000 </r>
       <r>   -15.0731     0.0000    24.0000 </r>
       <r>   -14.9152     0.0000    24.0000 </r>
       <r>   -14.7572     0.0000    24.0000 </r>
       <r>   -14.5993     0.0000    24.0000 </r>
       <r>   -14.4413     0.0000    24.0000 </r>
       <r>   -14.2834     0.0000    24.0000 </r>
       <r>   -14.1254     0.0000    24.0000 </r>
       <r>   -13.9675     0.0000    24.0000 </r>
       <r>   -13.8095     0.0000    24.0000 </r>
       <r>   -13.6516     0.0000    24.0000 </r>
       <r>   -13.4936     0.0000    24.0000 </r>
       <r>   -13.3357     0.0000    24.0000 </r>
       <r>   -13.1777     0.0000    24.0000 </r>
       <r>   -13.0198     0.0000    24.0000 </r>
       <r>   -12.8618     0.0000    24.0000 </r>
       <r>   -12.7039     0.0000    24.0000 </r>
       <r>   -12.5459     0.0000    24.0000 </r>
       <r>   -12.3880     0.0000    24.0000 </r>
       <r>   -12.2300     0.0000    24.0000 </r>
       <r>   -12.0721     0.0000    24.0000 </r>
       <r>   -11.9141     0.0000    24.0000 </r>
       <r>   -11.7562     0.0000    24.0000 </r>
       <r>   -11.5982     0.0000    24.0000 </r>
       <r>   -11.4403     0.0000    24.0000 </r>
       <r>   -11.2824     0.0000    24.0000 </r>
       <r>   -11.1244     0.0000    24.0000 </r>
       <r>   -10.9665     0.0000    24.0000 </r>
       <r>   -10.8085     0.0000    24.0000 </r>
       <r>   -10.6506     0.0000    24.0000 </r>
       <r>   -10.4926     0.0000    24.0000 </r>
       <r>   -10.3347     0.0000    24.0000 </r>
       <r>   -10.1767     0.0000    24.0000 </r>
       <r>   -10.0188     0.0000    24.0000 </r>
       <r>    -9.8608     0.0000    24.0000 </r>
       <r>    -9.7029     0.0000    24.0000 </r>
       <r>    -9.5449     0.0000    24.0000 </r>
       <r>    -9.3870     0.0000    24.0000 </r>
       <r>    -9.2290     0.0000    24.0000 </r>
       <r>    -9.0711     0.0000    24.0000 </r>
       <r>    -8.9131     0.0000    24.0000 </r>
       <r>    -8.7552     0.0000    24.0000 </r>
       <r>    -8.5972     0.0000    24.0000 </r>
       <r>    -8.4393     0.0000    24.0000 </r>
       <r>    -8.2813     0.0000    24.0000 </r>
       <r>    -8.1234     0.0000    24.0000 </r>
       <r>    -7.9654     0.0000    24.0000 </r>
       <r>    -7.8075     0.0000    24.0000 </r>
       <r>    -7.6496     0.0000    24.0000 </r>
       <r>    -7.4916     0.0000    24.0000 </r>
       <r>    -7.3337     0.0000    24.0000 </r>
       <r>    -7.1757     0.0000    24.0000 </r>
       <r>    -7.0178     0.0000    24.0000 </r>
       <r>    -6.8598     0.0000    24.0000 </r>
       <r>    -6.7019     0.0003    24.0001 </r>
       <r>    -6.5439     0.1289    24.0204 </r>
       <r>    -6.3860     0.2595    24.0614 </r>
       <r>    -6.2280     0.3120    24.1107 </r>
       <r>    -6.0701     1.7082    24.3805 </r>
       <r>    -5.9121     1.1210    24.5576 </r>
       <r>    -5.7542     0.0878    24.5714 </r>
       <r>    -5.5962     0.0001    24.5714 </r>
       <r>    -5.4383     0.6934    24.6810 </r>
       <r>    -5.2803     2.1323    25.0178 </r>
       <r>    -5.1224     0.7813    25.1412 </r>
       <r>    -4.9644     2.4244    25.5241 </r>
       <r>    -4.8065     0.1706    25.5510 </r>
       <r>    -4.6485     0.0000    25.5510 </r>
       <r>    -4.4906     0.0004    25.5511 </r>
       <r>    -4.3326     0.1230    25.5705 </r>
       <r>    -4.1747     2.1134    25.9043 </r>
       <r>    -4.0167     4.3407    26.5899 </r>
       <r>    -3.8588     0.7870    26.7142 </r>
       <r>    -3.7009     0.5264    26.7974 </r>
       <r>    -3.5429     4.1083    27.4463 </r>
       <r>    -3.3850     0.1402    27.4684 </r>
       <r>    -3.2270     1.2394    27.6642 </r>
       <r>    -3.0691     0.9572    27.8154 </r>
       <r>    -2.9111     2.5668    28.2208 </r>
       <r>    -2.7532     7.5195    29.4085 </r>
       <r>    -2.5952     0.8897    29.5490 </r>
       <r>    -2.4373     0.0226    29.5526 </r>
       <r>    -2.2793     2.4084    29.9330 </r>
       <r>    -2.1214     3.4339    30.4753 </r>
       <r>    -1.9634     5.3974    31.3278 </r>
       <r>    -1.8055     0.3808    31.3880 </r>
       <r>    -1.6475     0.7290    31.5031 </r>
       <r>    -1.4896     0.2690    31.5456 </r>
       <r>    -1.3316     2.6836    31.9695 </r>
       <r>    -1.1737     1.6828    32.2353 </r>
       <r>    -1.0157     0.5985    32.3298 </r>
       <r>    -0.8578     1.3652    32.5454 </r>
       <r>    -0.6998     2.3988    32.9243 </r>
       <r>    -0.5419     1.7010    33.1930 </r>
       <r>    -0.3839     2.6367    33.6094 </r>
       <r>    -0.2260     5.3105    34.4482 </r>
       <r>    -0.0681     3.4626    34.9951 </r>
       <r>     0.0899     0.2731    35.0383 </r>
       <r>     0.2478     1.9584    35.3476 </r>
       <r>     0.4058     3.0865    35.8351 </r>
       <r>     0.5637     4.1407    36.4891 </r>
       <r>     0.7217     3.5348    37.0475 </r>
       <r>     0.8796     0.9678    37.2003 </r>
       <r>     1.0376     2.4095    37.5809 </r>
       <r>     1.1955     2.9991    38.0546 </r>
       <r>     1.3535     4.1609    38.7118 </r>
       <r>     1.5114     7.5607    39.9060 </r>
       <r>     1.6694     4.3433    40.5920 </r>
       <r>     1.8273     4.3948    41.2862 </r>
       <r>     1.9853     4.5380    42.0029 </r>
       <r>     2.1432     0.6839    42.1109 </r>
       <r>     2.3012     6.5768    43.1497 </r>
       <r>     2.4591     7.5977    44.3498 </r>
       <r>     2.6171     3.8002    44.9500 </r>
       <r>     2.7750     3.5785    45.5152 </r>
       <r>     2.9330     2.2413    45.8692 </r>
       <r>     3.0909     5.4260    46.7263 </r>
       <r>     3.2489    10.0048    48.3065 </r>
       <r>     3.4068     3.5658    48.8697 </r>
       <r>     3.5647    10.5163    50.5307 </r>
       <r>     3.7227     3.7736    51.1268 </r>
       <r>     3.8806     5.3856    51.9774 </r>
       <r>     4.0386     8.5761    53.3320 </r>
       <r>     4.1965     4.0405    53.9702 </r>
       <r>     4.3545     5.2919    54.8060 </r>
       <r>     4.5124     8.2611    56.1108 </r>
       <r>     4.6704     7.4016    57.2799 </r>
       <r>     4.8283     6.3880    58.2889 </r>
       <r>     4.9863     2.8448    58.7382 </r>
       <r>     5.1442     4.6921    59.4793 </r>
       <r>     5.3022     7.8188    60.7143 </r>
       <r>     5.4601     4.2040    61.3783 </r>
       <r>     5.6181     3.9125    61.9963 </r>
       <r>     5.7760     4.9965    62.7854 </r>
       <r>     5.9340     7.4153    63.9567 </r>
       <r>     6.0919    12.0939    65.8669 </r>
       <r>     6.2499     4.2364    66.5360 </r>
       <r>     6.4078     2.4831    66.9282 </r>
       <r>     6.5658     3.0493    67.4098 </r>
       <r>     6.7237     2.1717    67.7528 </r>
       <r>     6.8817     0.9907    67.9093 </r>
       <r>     7.0396     1.4353    68.1360 </r>
       <r>     7.1976     0.5257    68.2191 </r>
       <r>     7.3555     2.9463    68.6844 </r>
       <r>     7.5134     2.2436    69.0388 </r>
       <r>     7.6714     2.2349    69.3918 </r>
       <r>     7.8293     0.2344    69.4288 </r>
       <r>     7.9873     1.4517    69.6581 </r>
       <r>     8.1452     0.8296    69.7891 </r>
       <r>     8.3032     5.2376    70.6164 </r>
       <r>     8.4611     6.5914    71.6575 </r>
       <r>     8.6191     4.3980    72.3521 </r>
       <r>     8.7770     1.9130    72.6543 </r>
       <r>     8.9350     1.2900    72.8581 </r>
       <r>     9.0929     5.8090    73.7756 </r>
       <r>     9.2509     5.1228    74.5847 </r>
       <r>     9.4088     4.2095    75.2496 </r>
       <r>     9.5668     2.1035    75.5818 </r>
       <r>     9.7247     3.1795    76.0840 </r>
       <r>     9.8827     1.6420    76.3434 </r>
       <r>    10.0406     5.7817    77.2566 </r>
       <r>    10.1986     3.7411    77.8475 </r>
       <r>    10.3565     4.2087    78.5122 </r>
       <r>    10.5145     4.3713    79.2027 </r>
       <r>    10.6724     5.0385    79.9985 </r>
       <r>    10.8304     6.8680    81.0833 </r>
       <r>    10.9883     3.8301    81.6882 </r>
       <r>    11.1462     4.7577    82.4397 </r>
       <r>    11.3042     5.6261    83.3283 </r>
       <r>    11.4621     5.7452    84.2358 </r>
       <r>    11.6201     3.6887    84.8184 </r>
       <r>    11.7780     3.4490    85.3632 </r>
       <r>    11.9360     1.4507    85.5923 </r>
       <r>    12.0939     0.3941    85.6546 </r>
       <r>    12.2519     0.6364    85.7551 </r>
       <r>    12.4098     0.0002    85.7551 </r>
       <r>    12.5678     0.0971    85.7704 </r>
       <r>    12.7257     1.4507    85.9996 </r>
       <r>    12.8837     0.0027    86.0000 </r>
       <r>    13.0416     0.0000    86.0000 </r>
       <r>    13.1996     0.0000    86.0000 </r>
       <r>    13.3575     0.0000    86.0000 </r>
       <r>    13.5155     0.0000    86.0000 </r>
       <r>    13.6734     0.0000    86.0000 </r>
       <r>    13.8314     0.0000    86.0000 </r>
       <r>    13.9893     0.0000    86.0000 </r>
       <r>    14.1473     0.0000    86.0000 </r>
       <r>    14.3052     0.0000    86.0000 </r>
       <r>    14.4632     0.0000    86.0000 </r>
       <r>    14.6211     0.0000    86.0000 </r>
       <r>    14.7790     0.0000    86.0000 </r>
      </set>
     </set>
    </array>
   </total>
   <partial>
    <array>
     <dimension dim="1">gridpoints</dimension>
     <dimension dim="2">spin</dimension>
     <dimension dim="3">ion</dimension>
     <field>energy</field>
     <field>    s</field>
     <field>   py</field>
     <field>   pz</field>
     <field>   px</field>
     <field>  dxy</field>
     <field>  dyz</field>
     <field>  dz2</field>
     <field>  dxz</field>
     <field>x2-y2</field>
     <set>
      <set comment="ion 1">
       <set comment="spin 1">
        <r>   -32.6053     0.0000     0.0000     0.0000     0.0000     0.0000     0.0000     0.0000     0.0000     0.0000 </r>
        <r>   -32.4474     0.0000     0.0000     0.0000     0.0000     0.0000     0.0000     0.0000     0.0000     0.0000 </r>
        <r>   -32.2894     0.0000     0.0000     0.0000     0.0000     0.0000     0.0000     0.0000     0.0000     0.0000 </r>
        <r>   -32.1315     0.0000     0.0000     0.0000     0.0000     0.0000     0.0000     0.0000     0.0000     0.0000 </r>
        <r>   -31.9735     0.0000     0.0000     0.0000     0.0000     0.0000     0.0000     0.0000     0.0000     0.0000 </r>
        <r>   -31.8156     0.0000     0.0000     0.0000     0.0000     0.0000     0.0000     0.0000     0.0000     0.0000 </r>
        <r>   -31.6576     0.0000     0.0000     0.0000     0.0000     0.0000     0.0000     0.0000     0.0000     0.0000 </r>
        <r>   -31.4997     0.0000     0.0000     0.0000     0.0000     0.0000     0.0000     0.0000     0.0000     0.0000 </r>
        <r>   -31.3417     0.0000     0.0000     0.0000     0.0000     0.0000     0.0000     0.0000     0.0000     0.0000 </r>
        <r>   -31.1838     0.0000     0.0000     0.0000     0.0000     0.0000     0.0000     0.0000     0.0000     0.0000 </r>
        <r>   -31.0258     0.0000     0.0000     0.0000     0.0000     0.0000     0.0000     0.0000     0.0000     0.0000 </r>
        <r>   -30.8679     0.0000     0.0000     0.0000     0.0000     0.0000     0.0000     0.0000     0.0000     0.0000 </r>
        <r>   -30.7099     0.0000     0.0000     0.0000     0.0000     0.0000     0.0000     0.0000     0.0000     0.0000 </r>
        <r>   -30.5520     0.0000     0.0000     0.0000     0.0000     0.0000     0.0000     0.0000     0.0000     0.0000 </r>
        <r>   -30.3940     0.0046     0.0003     0.0015     0.0006     0.0000     0.0000     0.0000     0.0000     0.0000 </r>
        <r>   -30.2361     0.0075     0.0019     0.0041     0.0045     0.0000     0.0000     0.0000     0.0000     0.0000 </r>
        <r>   -30.0782     0.0011     0.0009     0.0019     0.0006     0.0000     0.0000     0.0000     0.0000     0.0000 </r>
        <r>   -29.9202     0.0003     0.0011     0.0003     0.0007     0.0000     0.0000     0.0000     0.0000     0.0000 </r>
        <r>   -29.7623     0.0000     0.0001     0.0000     0.0000     0.0000     0.0000     0.0000     0.0000     0.0000 </r>
        <r>   -29.6043     0.0000     0.0000     0.0000     0.0000     0.0000     0.0000     0.0000     0.0000     0.0000 </r>
        <r>   -29.4464     0.0000     0.0000     0.0000     0.0000     0.0000     0.0000     0.0000     0.0000     0.0000 </r>
        <r>   -29.2884     0.0000     0.0000     0.0000     0.0000     0.0000     0.0000     0.0000     0.0000     0.0000 </r>
        <r>   -29.1305     0.0000     0.0000     0.0000     0.0000     0.0000     0.0000     0.0000     0.0000     0.0000 </r>
        <r>   -28.9725     0.0000     0.0000     0.0000     0.0000     0.0000     0.0000     0.0000     0.0000     0.0000 </r>
        <r>   -28.8146     0.0000     0.0000     0.0000     0.0000     0.0000     0.0000     0.0000     0.0000     0.0000 </r>
        <r>   -28.6566     0.0000     0.0000     0.0000     0.0000     0.0000     0.0000     0.0000     0.0000     0.0000 </r>
        <r>   -28.4987     0.0000     0.0000     0.0000     0.0000     0.0000     0.0000     0.0000     0.0000     0.0000 </r>
        <r>   -28.3407     0.0000     0.0000     0.0000     0.0000     0.0000     0.0000     0.0000     0.0000     0.0000 </r>
        <r>   -28.1828     0.0000     0.0000     0.0000     0.0000     0.0000     0.0000     0.0000     0.0000     0.0000 </r>
        <r>   -28.0248     0.0000     0.0000     0.0000     0.0000     0.0000     0.0000     0.0000     0.0000     0.0000 </r>
        <r>   -27.8669     0.0000     0.0000     0.0000     0.0000     0.0000     0.0000     0.0000     0.0000     0.0000 </r>
        <r>   -27.7089     0.0000     0.0000     0.0000     0.0000     0.0000     0.0000     0.0000     0.0000     0.0000 </r>
        <r>   -27.5510     0.0000     0.0000     0.0000     0.0000     0.0000     0.0000     0.0000     0.0000     0.0000 </r>
        <r>   -27.3930     0.0000     0.0000     0.0000     0.0000     0.0000     0.0000     0.0000     0.0000     0.0000 </r>
        <r>   -27.2351     0.0000     0.0000     0.0000     0.0000     0.0000     0.0000     0.0000     0.0000     0.0000 </r>
        <r>   -27.0771     0.0000     0.0000     0.0000     0.0000     0.0000     0.0000     0.0000     0.0000     0.0000 </r>
        <r>   -26.9192     0.0000     0.0000     0.0000     0.0000     0.0000     0.0000     0.0000     0.0000     0.0000 </r>
        <r>   -26.7612     0.0000     0.0000     0.0000     0.0000     0.0000     0.0000     0.0000     0.0000     0.0000 </r>
        <r>   -26.6033     0.0000     0.0000     0.0000     0.0000     0.0000     0.0000     0.0000     0.0000     0.0000 </r>
        <r>   -26.4453     0.0000     0.0000     0.0000     0.0000     0.0000     0.0000     0.0000     0.0000     0.0000 </r>
        <r>   -26.2874     0.0000     0.0000     0.0000     0.0000     0.0000     0.0000     0.0000     0.0000     0.0000 </r>
        <r>   -26.1295     0.0000     0.0000     0.0000     0.0000     0.0000     0.0000     0.0000     0.0000     0.0000 </r>
        <r>   -25.9715     0.0000     0.0000     0.0000     0.0000     0.0000     0.0000     0.0000     0.0000     0.0000 </r>
        <r>   -25.8136     0.0000     0.0000     0.0000     0.0000     0.0000     0.0000     0.0000     0.0000     0.0000 </r>
        <r>   -25.6556     0.0000     0.0000     0.0000     0.0000     0.0000     0.0000     0.0000     0.0000     0.0000 </r>
        <r>   -25.4977     0.0000     0.0000     0.0000     0.0000     0.0000     0.0000     0.0000     0.0000     0.0000 </r>
        <r>   -25.3397     0.0000     0.0000     0.0000     0.0000     0.0000     0.0000     0.0000     0.0000     0.0000 </r>
        <r>   -25.1818     0.0000     0.0000     0.0000     0.0000     0.0000     0.0000     0.0000     0.0000     0.0000 </r>
        <r>   -25.0238     0.0000     0.0000     0.0000     0.0000     0.0000     0.0000     0.0000     0.0000     0.0000 </r>
        <r>   -24.8659     0.0000     0.0000     0.0000     0.0000     0.0000     0.0000     0.0000     0.0000     0.0000 </r>
        <r>   -24.7079     0.0000     0.0000     0.0000     0.0000     0.0000     0.0000     0.0000     0.0000     0.0000 </r>
        <r>   -24.5500     0.0000     0.0000     0.0000     0.0000     0.0000     0.0000     0.0000     0.0000     0.0000 </r>
        <r>   -24.3920     0.0000     0.0000     0.0000     0.0000     0.0000     0.0000     0.0000     0.0000     0.0000 </r>
        <r>   -24.2341     0.0000     0.0000     0.0000     0.0000     0.0000     0.0000     0.0000     0.0000     0.0000 </r>
        <r>   -24.0761     0.0000     0.0000     0.0000     0.0000     0.0000     0.0000     0.0000     0.0000     0.0000 </r>
        <r>   -23.9182     0.0000     0.0000     0.0000     0.0000     0.0000     0.0000     0.0000     0.0000     0.0000 </r>
        <r>   -23.7602     0.0000     0.0000     0.0000     0.0000     0.0000     0.0000     0.0000     0.0000     0.0000 </r>
        <r>   -23.6023     0.0000     0.0000     0.0000     0.0000     0.0000     0.0000     0.0000     0.0000     0.0000 </r>
        <r>   -23.4443     0.0000     0.0000     0.0000     0.0000     0.0000     0.0000     0.0000     0.0000     0.0000 </r>
        <r>   -23.2864     0.0000     0.0000     0.0000     0.0000     0.0000     0.0000     0.0000     0.0000     0.0000 </r>
        <r>   -23.1284     0.0000     0.0000     0.0000     0.0000     0.0000     0.0000     0.0000     0.0000     0.0000 </r>
        <r>   -22.9705     0.0000     0.0000     0.0000     0.0000     0.0000     0.0000     0.0000     0.0000     0.0000 </r>
        <r>   -22.8125     0.0000     0.0000     0.0000     0.0000     0.0000     0.0000     0.0000     0.0000     0.0000 </r>
        <r>   -22.6546     0.0000     0.0000     0.0000     0.0000     0.0000     0.0000     0.0000     0.0000     0.0000 </r>
        <r>   -22.4967     0.0000     0.0000     0.0000     0.0000     0.0000     0.0000     0.0000     0.0000     0.0000 </r>
        <r>   -22.3387     0.0000     0.0000     0.0000     0.0000     0.0000     0.0000     0.0000     0.0000     0.0000 </r>
        <r>   -22.1808     0.0000     0.0000     0.0000     0.0000     0.0000     0.0000     0.0000     0.0000     0.0000 </r>
        <r>   -22.0228     0.0000     0.0000     0.0000     0.0000     0.0000     0.0000     0.0000     0.0000     0.0000 </r>
        <r>   -21.8649     0.0000     0.0000     0.0000     0.0000     0.0000     0.0000     0.0000     0.0000     0.0000 </r>
        <r>   -21.7069     0.0000     0.0000     0.0000     0.0000     0.0000     0.0000     0.0000     0.0000     0.0000 </r>
        <r>   -21.5490     0.0000     0.0000     0.0000     0.0000     0.0000     0.0000     0.0000     0.0000     0.0000 </r>
        <r>   -21.3910     0.0000     0.0000     0.0000     0.0000     0.0000     0.0000     0.0000     0.0000     0.0000 </r>
[...]
        <r>  0.0005  0.0001  0.0179  0.0002  0.0000  0.0000  0.0000  0.0000  0.0000 </r>
        <r>  0.0001  0.0032  0.0001  0.0039  0.0000  0.0000  0.0000  0.0000  0.0000 </r>
        <r>  0.0001  0.0032  0.0001  0.0039  0.0000  0.0000  0.0000  0.0000  0.0000 </r>
        <r>  0.0005  0.0001  0.0179  0.0002  0.0000  0.0000  0.0000  0.0000  0.0000 </r>
        <r>  0.0005  0.0001  0.0035  0.0000  0.0005  0.0003  0.0032  0.0004  0.0001 </r>
        <r>  0.0000  0.0289  0.0001  0.0000  0.1452  0.0360  0.0000  0.0074  0.0000 </r>
        <r>  0.0000  0.0289  0.0001  0.0000  0.1453  0.0360  0.0000  0.0074  0.0000 </r>
        <r>  0.0005  0.0001  0.0035  0.0000  0.0005  0.0003  0.0032  0.0004  0.0001 </r>
       </set>
       <set comment="band 28">
        <r>  0.0000  0.0000  0.1132  0.0000  0.0000  0.0000  0.0000  0.0000  0.0000 </r>
        <r>  0.0000  0.0026  0.0000  0.0015  0.0000  0.0000  0.0000  0.0000  0.0000 </r>
        <r>  0.0001  0.0020  0.0000  0.0019  0.0000  0.0000  0.0000  0.0000  0.0000 </r>
        <r>  0.0000  0.0000  0.0519  0.0000  0.0000  0.0000  0.0000  0.0000  0.0000 </r>
        <r>  0.0001  0.0032  0.0001  0.0039  0.0000  0.0000  0.0000  0.0000  0.0000 </r>
        <r>  0.0005  0.0001  0.0179  0.0002  0.0000  0.0000  0.0000  0.0000  0.0000 </r>
        <r>  0.0005  0.0001  0.0179  0.0002  0.0000  0.0000  0.0000  0.0000  0.0000 </r>
        <r>  0.0001  0.0032  0.0001  0.0039  0.0000  0.0000  0.0000  0.0000  0.0000 </r>
        <r>  0.0000  0.0289  0.0001  0.0000  0.1453  0.0360  0.0000  0.0074  0.0000 </r>
        <r>  0.0005  0.0001  0.0035  0.0000  0.0005  0.0003  0.0032  0.0004  0.0001 </r>
        <r>  0.0005  0.0001  0.0035  0.0000  0.0005  0.0003  0.0032  0.0004  0.0001 </r>
        <r>  0.0000  0.0289  0.0001  0.0000  0.1452  0.0360  0.0000  0.0074  0.0000 </r>
       </set>
       <set comment="band 29">
        <r>  0.0007  0.0000  0.0000  0.0083  0.0000  0.0000  0.0000  0.0000  0.0000 </r>
        <r>  0.0000  0.0000  0.0029  0.0000  0.0000  0.0000  0.0000  0.0000  0.0000 </r>
        <r>  0.0000  0.0000  0.0086  0.0000  0.0000  0.0000  0.0000  0.0000  0.0000 </r>
        <r>  0.0002  0.0049  0.0000  0.0004  0.0000  0.0000  0.0000  0.0000  0.0000 </r>
        <r>  0.0002  0.0129  0.0033  0.0100  0.0000  0.0000  0.0000  0.0000  0.0000 </r>
        <r>  0.0002  0.0000  0.1027  0.0046  0.0000  0.0000  0.0000  0.0000  0.0000 </r>
        <r>  0.0002  0.0000  0.1026  0.0046  0.0000  0.0000  0.0000  0.0000  0.0000 </r>
        <r>  0.0002  0.0129  0.0033  0.0100  0.0000  0.0000  0.0000  0.0000  0.0000 </r>
        <r>  0.0027  0.0034  0.0039  0.0159  0.0351  0.0125  0.0015  0.0272  0.0296 </r>
        <r>  0.0146  0.0000  0.0080  0.0014  0.0002  0.0008  0.0411  0.0061  0.0009 </r>
        <r>  0.0146  0.0000  0.0080  0.0014  0.0002  0.0008  0.0411  0.0061  0.0009 </r>
        <r>  0.0027  0.0034  0.0039  0.0159  0.0351  0.0125  0.0015  0.0272  0.0296 </r>
       </set>
       <set comment="band 30">
        <r>  0.0000  0.0000  0.0029  0.0000  0.0000  0.0000  0.0000  0.0000  0.0000 </r>
        <r>  0.0007  0.0000  0.0000  0.0083  0.0000  0.0000  0.0000  0.0000  0.0000 </r>
        <r>  0.0002  0.0049  0.0000  0.0004  0.0000  0.0000  0.0000  0.0000  0.0000 </r>
        <r>  0.0000  0.0000  0.0086  0.0000  0.0000  0.0000  0.0000  0.0000  0.0000 </r>
        <r>  0.0002  0.0000  0.1026  0.0046  0.0000  0.0000  0.0000  0.0000  0.0000 </r>
        <r>  0.0002  0.0129  0.0033  0.0100  0.0000  0.0000  0.0000  0.0000  0.0000 </r>
        <r>  0.0002  0.0129  0.0033  0.0100  0.0000  0.0000  0.0000  0.0000  0.0000 </r>
        <r>  0.0002  0.0000  0.1027  0.0046  0.0000  0.0000  0.0000  0.0000  0.0000 </r>
        <r>  0.0146  0.0000  0.0080  0.0014  0.0002  0.0008  0.0411  0.0061  0.0009 </r>
        <r>  0.0027  0.0034  0.0039  0.0159  0.0351  0.0125  0.0015  0.0272  0.0296 </r>
        <r>  0.0027  0.0034  0.0039  0.0159  0.0351  0.0125  0.0015  0.0272  0.0296 </r>
        <r>  0.0146  0.0000  0.0080  0.0014  0.0002  0.0008  0.0411  0.0061  0.0009 </r>
       </set>
       <set comment="band 31">
        <r>  0.0000  0.0000  0.0127  0.0000  0.0000  0.0000  0.0000  0.0000  0.0000 </r>
        <r>  0.0002  0.0130  0.0000  0.0043  0.0000  0.0000  0.0000  0.0000  0.0000 </r>
        <r>  0.0003  0.0076  0.0000  0.0080  0.0000  0.0000  0.0000  0.0000  0.0000 </r>
        <r>  0.0000  0.0000  0.0238  0.0000  0.0000  0.0000  0.0000  0.0000  0.0000 </r>
        <r>  0.0002  0.0065  0.0021  0.0121  0.0000  0.0000  0.0000  0.0000  0.0000 </r>
        <r>  0.0000  0.0004  0.0905  0.0000  0.0000  0.0000  0.0000  0.0000  0.0000 </r>
        <r>  0.0000  0.0004  0.0905  0.0000  0.0000  0.0000  0.0000  0.0000  0.0000 </r>
        <r>  0.0002  0.0065  0.0021  0.0121  0.0000  0.0000  0.0000  0.0000  0.0000 </r>
        <r>  0.0014  0.0004  0.0000  0.0101  0.0008  0.0541  0.0046  0.0625  0.0243 </r>
        <r>  0.0035  0.0006  0.0148  0.0001  0.0058  0.0026  0.0277  0.0013  0.0012 </r>
        <r>  0.0035  0.0006  0.0148  0.0001  0.0058  0.0027  0.0277  0.0013  0.0012 </r>
        <r>  0.0014  0.0004  0.0000  0.0101  0.0008  0.0541  0.0046  0.0625  0.0243 </r>
       </set>
       <set comment="band 32">
        <r>  0.0002  0.0130  0.0000  0.0043  0.0000  0.0000  0.0000  0.0000  0.0000 </r>
        <r>  0.0000  0.0000  0.0127  0.0000  0.0000  0.0000  0.0000  0.0000  0.0000 </r>
        <r>  0.0000  0.0000  0.0238  0.0000  0.0000  0.0000  0.0000  0.0000  0.0000 </r>
        <r>  0.0003  0.0076  0.0000  0.0080  0.0000  0.0000  0.0000  0.0000  0.0000 </r>
        <r>  0.0000  0.0004  0.0905  0.0000  0.0000  0.0000  0.0000  0.0000  0.0000 </r>
        <r>  0.0002  0.0065  0.0021  0.0121  0.0000  0.0000  0.0000  0.0000  0.0000 </r>
        <r>  0.0002  0.0065  0.0021  0.0121  0.0000  0.0000  0.0000  0.0000  0.0000 </r>
        <r>  0.0000  0.0004  0.0905  0.0000  0.0000  0.0000  0.0000  0.0000  0.0000 </r>
        <r>  0.0035  0.0006  0.0148  0.0001  0.0058  0.0027  0.0277  0.0013  0.0012 </r>
        <r>  0.0014  0.0004  0.0000  0.0101  0.0008  0.0541  0.0046  0.0625  0.0243 </r>
        <r>  0.0014  0.0004  0.0000  0.0101  0.0008  0.0541  0.0046  0.0625  0.0243 </r>
        <r>  0.0035  0.0006  0.0148  0.0001  0.0058  0.0026  0.0277  0.0013  0.0012 </r>
       </set>
       <set comment="band 33">
        <r>  0.0000  0.0000  0.0006  0.0000  0.0000  0.0000  0.0000  0.0000  0.0000 </r>
        <r>  0.0016  0.0005  0.0000  0.0012  0.0000  0.0000  0.0000  0.0000  0.0000 </r>
        <r>  0.0001  0.0069  0.0000  0.0037  0.0000  0.0000  0.0000  0.0000  0.0000 </r>
        <r>  0.0000  0.0000  0.0036  0.0000  0.0000  0.0000  0.0000  0.0000  0.0000 </r>
        <r>  0.0006  0.0009  0.0000  0.0006  0.0000  0.0000  0.0000  0.0000  0.0000 </r>
        <r>  0.0000  0.0054  0.0019  0.0037  0.0000  0.0000  0.0000  0.0000  0.0000 </r>
        <r>  0.0000  0.0054  0.0019  0.0037  0.0000  0.0000  0.0000  0.0000  0.0000 </r>
        <r>  0.0006  0.0008  0.0000  0.0006  0.0000  0.0000  0.0000  0.0000  0.0000 </r>
        <r>  0.0010  0.0025  0.0000  0.0043  0.0161  0.0685  0.0012  0.0155  0.0078 </r>
        <r>  0.0008  0.0062  0.0000  0.0103  0.0772  0.0303  0.0149  0.0254  0.0324 </r>
        <r>  0.0008  0.0062  0.0000  0.0102  0.0768  0.0298  0.0149  0.0252  0.0322 </r>
        <r>  0.0009  0.0025  0.0000  0.0043  0.0157  0.0681  0.0012  0.0153  0.0077 </r>
       </set>
       <set comment="band 34">
        <r>  0.0016  0.0005  0.0000  0.0012  0.0000  0.0000  0.0000  0.0000  0.0000 </r>
        <r>  0.0000  0.0000  0.0006  0.0000  0.0000  0.0000  0.0000  0.0000  0.0000 </r>
        <r>  0.0000  0.0000  0.0036  0.0000  0.0000  0.0000  0.0000  0.0000  0.0000 </r>
        <r>  0.0001  0.0069  0.0000  0.0037  0.0000  0.0000  0.0000  0.0000  0.0000 </r>
        <r>  0.0000  0.0054  0.0019  0.0037  0.0000  0.0000  0.0000  0.0000  0.0000 </r>
        <r>  0.0006  0.0008  0.0000  0.0006  0.0000  0.0000  0.0000  0.0000  0.0000 </r>
        <r>  0.0006  0.0009  0.0000  0.0006  0.0000  0.0000  0.0000  0.0000  0.0000 </r>
        <r>  0.0000  0.0054  0.0019  0.0037  0.0000  0.0000  0.0000  0.0000  0.0000 </r>
        <r>  0.0008  0.0062  0.0000  0.0102  0.0768  0.0298  0.0149  0.0252  0.0322 </r>
        <r>  0.0009  0.0025  0.0000  0.0043  0.0157  0.0681  0.0012  0.0153  0.0077 </r>
        <r>  0.0010  0.0025  0.0000  0.0043  0.0161  0.0685  0.0012  0.0155  0.0078 </r>
        <r>  0.0008  0.0062  0.0000  0.0103  0.0772  0.0303  0.0149  0.0254  0.0324 </r>
       </set>
       <set comment="band 35">
        <r>  0.0000  0.0000  0.0068  0.0000  0.0000  0.0000  0.0000  0.0000  0.0000 </r>
        <r>  0.0066  0.0023  0.0000  0.0009  0.0000  0.0000  0.0000  0.0000  0.0000 </r>
        <r>  0.0001  0.0322  0.0000  0.0128  0.0000  0.0000  0.0000  0.0000  0.0000 </r>
        <r>  0.0000  0.0001  0.0018  0.0001  0.0000  0.0000  0.0000  0.0000  0.0000 </r>
        <r>  0.0001  0.0320  0.0000  0.0042  0.0000  0.0000  0.0000  0.0000  0.0000 </r>
        <r>  0.0001  0.0047  0.0006  0.0021  0.0000  0.0000  0.0000  0.0000  0.0000 </r>
        <r>  0.0001  0.0086  0.0007  0.0030  0.0000  0.0000  0.0000  0.0000  0.0000 </r>
        <r>  0.0001  0.0359  0.0001  0.0051  0.0000  0.0000  0.0000  0.0000  0.0000 </r>
        <r>  0.0015  0.0002  0.0000  0.0006  0.0235  0.0630  0.0009  0.0176  0.0109 </r>
        <r>  0.0046  0.0001  0.0010  0.0000  0.0407  0.0039  0.0322  0.0065  0.0719 </r>
        <r>  0.0054  0.0000  0.0011  0.0001  0.0501  0.0009  0.0342  0.0041  0.0807 </r>
        <r>  0.0023  0.0002  0.0000  0.0006  0.0329  0.0600  0.0029  0.0152  0.0197 </r>
       </set>
       <set comment="band 36">
        <r>  0.0066  0.0023  0.0000  0.0009  0.0000  0.0000  0.0000  0.0000  0.0000 </r>
        <r>  0.0000  0.0000  0.0068  0.0000  0.0000  0.0000  0.0000  0.0000  0.0000 </r>
        <r>  0.0000  0.0001  0.0018  0.0001  0.0000  0.0000  0.0000  0.0000  0.0000 </r>
        <r>  0.0001  0.0322  0.0000  0.0128  0.0000  0.0000  0.0000  0.0000  0.0000 </r>
        <r>  0.0001  0.0086  0.0007  0.0030  0.0000  0.0000  0.0000  0.0000  0.0000 </r>
        <r>  0.0001  0.0359  0.0001  0.0051  0.0000  0.0000  0.0000  0.0000  0.0000 </r>
        <r>  0.0001  0.0320  0.0000  0.0042  0.0000  0.0000  0.0000  0.0000  0.0000 </r>
        <r>  0.0001  0.0047  0.0006  0.0021  0.0000  0.0000  0.0000  0.0000  0.0000 </r>
        <r>  0.0054  0.0000  0.0011  0.0001  0.0501  0.0009  0.0342  0.0041  0.0807 </r>
        <r>  0.0023  0.0002  0.0000  0.0006  0.0329  0.0600  0.0029  0.0152  0.0197 </r>
        <r>  0.0015  0.0002  0.0000  0.0006  0.0235  0.0630  0.0009  0.0176  0.0109 </r>
        <r>  0.0046  0.0001  0.0010  0.0000  0.0407  0.0039  0.0322  0.0065  0.0719 </r>
       </set>
       <set comment="band 37">
        <r>  0.0000  0.0363  0.0011  0.0064  0.0000  0.0000  0.0000  0.0000  0.0000 </r>
        <r>  0.0000  0.0179  0.0023  0.0031  0.0000  0.0000  0.0000  0.0000  0.0000 </r>
        <r>  0.0022  0.0010  0.0011  0.0028  0.0000  0.0000  0.0000  0.0000  0.0000 </r>
        <r>  0.0045  0.0021  0.0005  0.0056  0.0000  0.0000  0.0000  0.0000  0.0000 </r>
        <r>  0.0042  0.0067  0.0042  0.0037  0.0000  0.0000  0.0000  0.0000  0.0000 </r>
        <r>  0.0059  0.0040  0.0084  0.0074  0.0000  0.0000  0.0000  0.0000  0.0000 </r>
        <r>  0.0023  0.0018  0.0082  0.0071  0.0000  0.0000  0.0000  0.0000  0.0000 </r>
        <r>  0.0006  0.0046  0.0040  0.0034  0.0000  0.0000  0.0000  0.0000  0.0000 </r>
        <r>  0.0017  0.0000  0.0001  0.0007  0.0423  0.0053  0.1430  0.0059  0.0426 </r>
        <r>  0.0005  0.0000  0.0000  0.0004  0.0185  0.0037  0.1444  0.0012  0.0388 </r>
        <r>  0.0024  0.0000  0.0002  0.0002  0.0289  0.0006  0.0115  0.0224  0.0018 </r>
        <r>  0.0035  0.0001  0.0003  0.0005  0.0526  0.0022  0.0100  0.0272  0.0056 </r>
       </set>
       <set comment="band 38">
        <r>  0.0000  0.0179  0.0023  0.0031  0.0000  0.0000  0.0000  0.0000  0.0000 </r>
        <r>  0.0000  0.0363  0.0011  0.0064  0.0000  0.0000  0.0000  0.0000  0.0000 </r>
        <r>  0.0045  0.0021  0.0005  0.0056  0.0000  0.0000  0.0000  0.0000  0.0000 </r>
        <r>  0.0022  0.0010  0.0011  0.0028  0.0000  0.0000  0.0000  0.0000  0.0000 </r>
        <r>  0.0023  0.0018  0.0082  0.0071  0.0000  0.0000  0.0000  0.0000  0.0000 </r>
        <r>  0.0006  0.0046  0.0040  0.0034  0.0000  0.0000  0.0000  0.0000  0.0000 </r>
        <r>  0.0042  0.0067  0.0042  0.0037  0.0000  0.0000  0.0000  0.0000  0.0000 </r>
        <r>  0.0059  0.0040  0.0084  0.0074  0.0000  0.0000  0.0000  0.0000  0.0000 </r>
        <r>  0.0024  0.0000  0.0002  0.0002  0.0289  0.0006  0.0115  0.0225  0.0018 </r>
        <r>  0.0035  0.0001  0.0003  0.0005  0.0527  0.0022  0.0100  0.0272  0.0056 </r>
        <r>  0.0017  0.0000  0.0001  0.0007  0.0423  0.0053  0.1429  0.0059  0.0426 </r>
        <r>  0.0005  0.0000  0.0000  0.0004  0.0185  0.0037  0.1444  0.0012  0.0388 </r>
       </set>
       <set comment="band 39">
        <r>  0.0000  0.0000  0.0001  0.0231  0.0000  0.0000  0.0000  0.0000  0.0000 </r>
        <r>  0.0000  0.0000  0.0001  0.0117  0.0000  0.0000  0.0000  0.0000  0.0000 </r>
        <r>  0.0020  0.0018  0.0004  0.0028  0.0000  0.0000  0.0000  0.0000  0.0000 </r>
        <r>  0.0039  0.0035  0.0002  0.0055  0.0000  0.0000  0.0000  0.0000  0.0000 </r>
        <r>  0.0006  0.0009  0.0004  0.0009  0.0000  0.0000  0.0000  0.0000  0.0000 </r>
        <r>  0.0007  0.0017  0.0006  0.0026  0.0000  0.0000  0.0000  0.0000  0.0000 </r>
        <r>  0.0046  0.0015  0.0005  0.0088  0.0000  0.0000  0.0000  0.0000  0.0000 </r>
        <r>  0.0045  0.0007  0.0002  0.0071  0.0000  0.0000  0.0000  0.0000  0.0000 </r>
        <r>  0.0076  0.0001  0.0001  0.0009  0.0044  0.0106  0.0636  0.0030  0.0501 </r>
        <r>  0.0055  0.0001  0.0001  0.0006  0.0019  0.0061  0.0215  0.0049  0.0170 </r>
        <r>  0.0011  0.0001  0.0004  0.0002  0.0037  0.0036  0.1331  0.0032  0.0965 </r>
        <r>  0.0033  0.0002  0.0005  0.0005  0.0062  0.0081  0.1752  0.0013  0.1298 </r>
       </set>
       <set comment="band 40">
        <r>  0.0000  0.0001  0.0004  0.0124  0.0000  0.0000  0.0000  0.0000  0.0000 </r>
        <r>  0.0001  0.0000  0.0000  0.0239  0.0000  0.0000  0.0000  0.0000  0.0000 </r>
        <r>  0.0043  0.0040  0.0003  0.0047  0.0000  0.0000  0.0000  0.0000  0.0000 </r>
        <r>  0.0022  0.0014  0.0005  0.0033  0.0000  0.0000  0.0000  0.0000  0.0000 </r>
        <r>  0.0047  0.0013  0.0006  0.0069  0.0000  0.0000  0.0000  0.0000  0.0000 </r>
        <r>  0.0046  0.0007  0.0004  0.0069  0.0000  0.0000  0.0000  0.0000  0.0000 </r>
        <r>  0.0006  0.0013  0.0004  0.0014  0.0000  0.0000  0.0000  0.0000  0.0000 </r>
        <r>  0.0007  0.0017  0.0007  0.0031  0.0000  0.0000  0.0000  0.0000  0.0000 </r>
        <r>  0.0010  0.0001  0.0003  0.0001  0.0038  0.0027  0.1268  0.0024  0.1062 </r>
        <r>  0.0024  0.0002  0.0003  0.0004  0.0085  0.0101  0.1521  0.0008  0.1207 </r>
        <r>  0.0084  0.0001  0.0002  0.0011  0.0048  0.0144  0.0705  0.0029  0.0496 </r>
        <r>  0.0062  0.0001  0.0001  0.0007  0.0017  0.0055  0.0271  0.0067  0.0224 </r>
       </set>
       <set comment="band 41">
        <r>  0.0020  0.0056  0.0076  0.0062  0.0000  0.0000  0.0000  0.0000  0.0000 </r>
        <r>  0.0023  0.0063  0.0068  0.0069  0.0000  0.0000  0.0000  0.0000  0.0000 </r>
        <r>  0.0056  0.0012  0.0036  0.0036  0.0000  0.0000  0.0000  0.0000  0.0000 </r>
        <r>  0.0050  0.0011  0.0041  0.0032  0.0000  0.0000  0.0000  0.0000  0.0000 </r>
        <r>  0.0001  0.0109  0.0002  0.0008  0.0000  0.0000  0.0000  0.0000  0.0000 </r>
        <r>  0.0001  0.0121  0.0001  0.0011  0.0000  0.0000  0.0000  0.0000  0.0000 </r>
        <r>  0.0005  0.0098  0.0081  0.0054  0.0000  0.0000  0.0000  0.0000  0.0000 </r>
        <r>  0.0005  0.0086  0.0082  0.0051  0.0000  0.0000  0.0000  0.0000  0.0000 </r>
        <r>  0.0072  0.0008  0.0005  0.0034  0.0141  0.0383  0.0806  0.0004  0.0009 </r>
        <r>  0.0059  0.0009  0.0004  0.0030  0.0160  0.0424  0.0698  0.0006  0.0006 </r>
        <r>  0.0166  0.0003  0.0031  0.0047  0.0180  0.0298  0.1023  0.0051  0.0077 </r>
        <r>  0.0179  0.0002  0.0032  0.0051  0.0160  0.0258  0.1130  0.0049  0.0080 </r>
       </set>
       <set comment="band 42">
        <r>  0.0044  0.0056  0.0059  0.0061  0.0000  0.0000  0.0000  0.0000  0.0000 </r>
        <r>  0.0018  0.0055  0.0098  0.0053  0.0000  0.0000  0.0000  0.0000  0.0000 </r>
        <r>  0.0045  0.0008  0.0035  0.0029  0.0000  0.0000  0.0000  0.0000  0.0000 </r>
        <r>  0.0053  0.0022  0.0035  0.0057  0.0000  0.0000  0.0000  0.0000  0.0000 </r>
        <r>  0.0004  0.0111  0.0081  0.0034  0.0000  0.0000  0.0000  0.0000  0.0000 </r>
        <r>  0.0004  0.0090  0.0072  0.0068  0.0000  0.0000  0.0000  0.0000  0.0000 </r>
        <r>  0.0001  0.0086  0.0002  0.0015  0.0000  0.0000  0.0000  0.0000  0.0000 </r>
        <r>  0.0002  0.0139  0.0001  0.0005  0.0000  0.0000  0.0000  0.0000  0.0000 </r>
        <r>  0.0176  0.0004  0.0033  0.0038  0.0217  0.0368  0.1206  0.0032  0.0017 </r>
        <r>  0.0160  0.0001  0.0029  0.0059  0.0100  0.0257  0.0970  0.0068  0.0141 </r>
        <r>  0.0062  0.0010  0.0004  0.0035  0.0172  0.0286  0.0647  0.0018  0.0056 </r>
        <r>  0.0051  0.0009  0.0004  0.0031  0.0163  0.0531  0.0664  0.0005  0.0051 </r>
       </set>
       <set comment="band 43">
        <r>  0.0114  0.0003  0.0078  0.0000  0.0000  0.0000  0.0000  0.0000  0.0000 </r>
        <r>  0.0147  0.0004  0.0061  0.0000  0.0000  0.0000  0.0000  0.0000  0.0000 </r>
        <r>  0.0000  0.0073  0.0003  0.0102  0.0000  0.0000  0.0000  0.0000  0.0000 </r>
        <r>  0.0000  0.0057  0.0004  0.0079  0.0000  0.0000  0.0000  0.0000  0.0000 </r>
        <r>  0.0000  0.0028  0.0005  0.0112  0.0000  0.0000  0.0000  0.0000  0.0000 </r>
        <r>  0.0000  0.0033  0.0004  0.0142  0.0000  0.0000  0.0000  0.0000  0.0000 </r>
        <r>  0.0000  0.0058  0.0003  0.0133  0.0000  0.0000  0.0000  0.0000  0.0000 </r>
        <r>  0.0000  0.0053  0.0004  0.0103  0.0000  0.0000  0.0000  0.0000  0.0000 </r>
        <r>  0.0020  0.0016  0.0004  0.0019  0.0221  0.0221  0.0435  0.0245  0.0847 </r>
        <r>  0.0019  0.0014  0.0004  0.0018  0.0200  0.0280  0.0385  0.0319  0.0806 </r>
        <r>  0.0010  0.0008  0.0002  0.0009  0.0105  0.0430  0.0217  0.0418  0.0412 </r>
        <r>  0.0010  0.0009  0.0003  0.0009  0.0127  0.0370  0.0267  0.0344  0.0448 </r>
       </set>
      </set>
     </set>
    </set>
   </array>
  </projected>
 </calculation>
 <structure name="finalpos" >
  <crystal>
   <varray name="basis" >
    <v>       1.50938000      -2.61432300       0.00000000 </v>
    <v>       1.50938000       2.61432300       0.00000000 </v>
    <v>       0.00000000       0.00000000      14.08948700 </v>
   </varray>
   <i name="volume">    111.19442442 </i>
   <varray name="rec_basis" >
    <v>       0.33126184      -0.19125410       0.00000000 </v>
    <v>       0.33126184       0.19125410       0.00000000 </v>
    <v>       0.00000000       0.00000000       0.07097490 </v>
   </varray>
  </crystal>
  <varray name="positions" >
   <v>       0.00000000       0.00000000       0.75000000 </v>
   <v>       0.00000000       0.00000000       0.25000000 </v>
   <v>       0.66666700       0.33333300       0.25000000 </v>
   <v>       0.33333300       0.66666700       0.75000000 </v>
   <v>       0.66666700       0.33333300       0.02272500 </v>
   <v>       0.33333300       0.66666700       0.97727500 </v>
   <v>       0.33333300       0.66666700       0.52272500 </v>
   <v>       0.66666700       0.33333300       0.47727500 </v>
   <v>       0.66666700       0.33333300       0.86524000 </v>
   <v>       0.33333300       0.66666700       0.13476000 </v>
   <v>       0.33333300       0.66666700       0.36524000 </v>
   <v>       0.66666700       0.33333300       0.63476000 </v>
  </varray>
 </structure>
</modeling>
